 Gaussian 09, Revision A.02,
 Gaussian 09:  EM64L-G09RevA.02 11-Jun-2009

 ----------------------------------------------------------------------
 #PBEPBE/gen scf=(maxcycle=500,conver=4) NMR=GIAO Scrf=(solvent=acetone
 )
 ----------------------------------------------------------------------

 ------------
 estrutura 23
 ------------
 Symbolic Z-matrix:
 Charge = -1 Multiplicity = 1

                         Standard orientation:
 ---------------------------------------------------------------------
 Center     Atomic      Atomic             Coordinates (Angstroms)
 Number     Number       Type             X           Y           Z
 ---------------------------------------------------------------------
      1         50           0        0.633887    1.108422    2.468400
      2         17           0       -1.150986    2.006265    3.861048
      3         17           0        2.196539    2.867901    3.092497
      4         17           0        1.549424   -0.617916    3.911166
      5         15           0       -2.189883   -0.059611    0.701959
      6          8           0       -3.194720   -1.036555   -0.093854
      7          8           0       -2.838200    1.411650    0.773991
      8          8           0       -2.397087   -0.569890    2.222905
      9          6           0       -4.282466   -0.970323   -0.965276
     10          6           0       -4.692506    0.211575   -1.583369
     11          6           0       -5.792047    0.171633   -2.447913
     12          6           0       -6.467747   -1.026779   -2.691452
     13          6           0       -6.033478   -2.202609   -2.067352
     14          6           0       -4.937238   -2.180887   -1.202049
     15          6           0       -4.065419    1.908831    1.234987
     16          6           0       -4.420581    3.162197    0.728985
     17          6           0       -5.622725    3.745949    1.137480
     18          6           0       -6.458654    3.080216    2.041758
     19          6           0       -6.084924    1.827994    2.536671
     20          6           0       -4.882833    1.228180    2.139654
     21          6           0       -2.224863   -1.763460    2.923809
     22          6           0       -1.986646   -1.635032    4.295920
     23          6           0       -1.849348   -2.788392    5.070094
     24          6           0       -1.939434   -4.055270    4.479089
     25          6           0       -2.176509   -4.159663    3.106349
     26          6           0       -2.333686   -3.014269    2.318632
     27         50           0       -0.777983    0.635118   -2.619975
     28         15           0        2.235450    0.712293   -0.635430
     29         17           0        0.842303    0.822975   -4.433574
     30         17           0       -2.056841   -1.152133   -3.653324
     31         17           0       -2.209384    2.549000   -3.115708
     32          8           0        2.461083    2.069396   -1.499832
     33          8           0        3.132752    0.866105    0.710358
     34          8           0        3.064356   -0.240001   -1.632544
     35          6           0        1.852859    3.325886   -1.455672
     36          6           0        4.497500    1.140689    0.896331
     37          6           0        4.029873   -1.233122   -1.458885
     38          6           0        1.738432    4.040486   -0.263464
     39          6           0        1.448065    3.874850   -2.675600
     40          6           0        5.273149    1.799401   -0.059257
     41          6           0        5.030551    0.726460    2.118810
     42          6           0        4.154690   -1.971882   -0.283376
     43          6           0        4.848030   -1.473844   -2.564381
     44          6           0        1.185204    5.324944   -0.294461
     45          6           0        0.902548    5.161747   -2.690534
     46          6           0        6.624160    2.036736    0.226243
     47          6           0        6.379199    0.974840    2.386781
     48          6           0        5.131448   -2.972454   -0.220569
     49          6           0        5.817694   -2.475442   -2.485325
     50          6           0        0.765193    5.888825   -1.503779
     51          6           0        7.179209    1.627951    1.441222
     52          6           0        5.963933   -3.227235   -1.312846
     53          1           0        8.234270    1.818066    1.653988
     54          1           0        7.239930    2.549596   -0.516922
     55          1           0        6.803823    0.652847    3.340858
     56          1           0        4.843785    2.123566   -1.006824
     57          1           0        4.387961    0.221159    2.841911
     58          1           0        3.500476   -1.795804    0.570011
     59          1           0        5.224954   -3.561898    0.694512
     60          1           0        6.721234   -4.012599   -1.255460
     61          1           0        6.459647   -2.670227   -3.347731
     62          1           0        4.709387   -0.881430   -3.470253
     63          1           0        2.091610    3.619971    0.677780
     64          1           0        1.093460    5.886070    0.638616
     65          1           0        0.338405    6.894655   -1.520766
     66          1           0        0.581588    5.594458   -3.641386
     67          1           0        1.558500    3.289499   -3.588357
     68          1           0       -7.398938    3.537831    2.359397
     69          1           0       -5.904980    4.725121    0.742602
     70          1           0       -6.728929    1.301156    3.245504
     71          1           0       -4.594186    0.257460    2.537945
     72          1           0       -3.757483    3.659644    0.018384
     73          1           0       -1.908320   -0.637996    4.730796
     74          1           0       -1.662321   -2.695001    6.142567
     75          1           0       -1.823022   -4.954333    5.088347
     76          1           0       -2.243312   -5.140116    2.628230
     77          1           0       -2.536285   -3.109041    1.252327
     78          1           0       -4.160017    1.147961   -1.426627
     79          1           0       -6.110802    1.094533   -2.939256
     80          1           0       -7.324328   -1.047825   -3.369493
     81          1           0       -6.547578   -3.148181   -2.256605
     82          1           0       -4.571305   -3.089548   -0.722146
     83         78           0        0.037522    0.159086   -0.041015
     84         50           0        0.300075   -2.714885   -0.504386
     85         17           0        1.541060   -4.062837    1.162190
     86         17           0       -1.575226   -4.298216   -0.880422
     87         17           0        1.499836   -3.404407   -2.537667
 ---------------------------------------------------------------------

 SCF Done:  E(RPBE-PBE) =  -41713.1921717     A.U. after   21 cycles

  1  Sn   Isotropic =  2187.4361   Anisotropy =   687.1896

  2  Cl   Isotropic =   689.3324   Anisotropy =   374.0712

  3  Cl   Isotropic =   697.6111   Anisotropy =   347.8668

  4  Cl   Isotropic =   691.6236   Anisotropy =   393.5089

  5  P    Isotropic =   177.1369   Anisotropy =   237.6539

  6  O    Isotropic =   109.9751   Anisotropy =    68.5379

  7  O    Isotropic =   112.6649   Anisotropy =    65.5312

  8  O    Isotropic =    73.1004   Anisotropy =   152.8802

  9  C    Isotropic =    21.2313   Anisotropy =    96.1171

 10  C    Isotropic =    60.0982   Anisotropy =   155.0068

 11  C    Isotropic =    48.0123   Anisotropy =   179.2623

 12  C    Isotropic =    55.9367   Anisotropy =   183.3579

 13  C    Isotropic =    50.7883   Anisotropy =   177.5083

 14  C    Isotropic =    61.0721   Anisotropy =   148.9577

 15  C    Isotropic =    19.5265   Anisotropy =    95.3987

 16  C    Isotropic =    59.5072   Anisotropy =   148.0118

 17  C    Isotropic =    46.4177   Anisotropy =   178.4965

 18  C    Isotropic =    53.8982   Anisotropy =   187.3729

 19  C    Isotropic =    48.4355   Anisotropy =   180.7954

 20  C    Isotropic =    62.4126   Anisotropy =   156.7743

 21  C    Isotropic =    26.6736   Anisotropy =   101.2483

 22  C    Isotropic =    57.6588   Anisotropy =   158.4513

 23  C    Isotropic =    45.4126   Anisotropy =   180.0875

 24  C    Isotropic =    51.6286   Anisotropy =   172.8128

 25  C    Isotropic =    48.1976   Anisotropy =   182.3420

 26  C    Isotropic =    60.2627   Anisotropy =   161.9099

 27  Sn   Isotropic =  2136.3747   Anisotropy =   696.9426

 28  P    Isotropic =   156.9805   Anisotropy =   252.3715

 29  Cl   Isotropic =   702.5445   Anisotropy =   365.7616

 30  Cl   Isotropic =   692.0033   Anisotropy =   344.6017

 31  Cl   Isotropic =   689.6219   Anisotropy =   394.4871

 32  O    Isotropic =    78.3977   Anisotropy =   170.1188

 33  O    Isotropic =    89.8027   Anisotropy =    74.3427

 34  O    Isotropic =   123.3177   Anisotropy =    36.7996

 35  C    Isotropic =    25.9637   Anisotropy =   107.6775

 36  C    Isotropic =    22.0314   Anisotropy =   100.4922

 37  C    Isotropic =    22.9637   Anisotropy =   103.1558

 38  C    Isotropic =    55.5371   Anisotropy =   163.8603

 39  C    Isotropic =    53.9704   Anisotropy =   163.7780

 40  C    Isotropic =    61.4962   Anisotropy =   153.8767

 41  C    Isotropic =    57.5623   Anisotropy =   154.5469

 42  C    Isotropic =    59.3207   Anisotropy =   161.7390

 43  C    Isotropic =    61.0652   Anisotropy =   155.7497

 44  C    Isotropic =    45.5926   Anisotropy =   179.3543

 45  C    Isotropic =    47.5217   Anisotropy =   183.2028

 46  C    Isotropic =    48.6881   Anisotropy =   179.2981

 47  C    Isotropic =    48.1395   Anisotropy =   177.7567

 48  C    Isotropic =    48.6184   Anisotropy =   186.9463

 49  C    Isotropic =    46.0055   Anisotropy =   181.9688

 50  C    Isotropic =    49.4255   Anisotropy =   175.7140

 51  C    Isotropic =    51.2160   Anisotropy =   173.1212

 52  C    Isotropic =    53.1860   Anisotropy =   189.3309

 53  H    Isotropic =    24.2504   Anisotropy =     2.7123

 54  H    Isotropic =    24.1701   Anisotropy =     7.5440

 55  H    Isotropic =    23.9515   Anisotropy =     7.5514

 56  H    Isotropic =    23.7558   Anisotropy =    12.2994

 57  H    Isotropic =    23.9004   Anisotropy =    10.7812

 58  H    Isotropic =    23.8650   Anisotropy =     6.4642

 59  H    Isotropic =    24.0607   Anisotropy =     9.0398

 60  H    Isotropic =    24.1696   Anisotropy =     4.4108

 61  H    Isotropic =    23.9410   Anisotropy =     5.2180

 62  H    Isotropic =    24.2771   Anisotropy =     9.8301

 63  H    Isotropic =    22.8208   Anisotropy =     6.0667

 64  H    Isotropic =    23.7360   Anisotropy =     8.6453

 65  H    Isotropic =    23.8475   Anisotropy =     3.3440

 66  H    Isotropic =    23.5737   Anisotropy =     6.4644

 67  H    Isotropic =    22.9923   Anisotropy =     9.4994

 68  H    Isotropic =    23.9533   Anisotropy =     2.8607

 69  H    Isotropic =    23.7605   Anisotropy =     7.0896

 70  H    Isotropic =    23.9639   Anisotropy =     7.8990

 71  H    Isotropic =    23.7623   Anisotropy =    12.2642

 72  H    Isotropic =    24.2518   Anisotropy =     9.8969

 73  H    Isotropic =    23.3856   Anisotropy =    10.2826

 74  H    Isotropic =    23.5903   Anisotropy =     6.5545

 75  H    Isotropic =    23.8544   Anisotropy =     3.7835

 76  H    Isotropic =    23.7110   Anisotropy =     8.9074

 77  H    Isotropic =    22.5435   Anisotropy =     6.0576

 78  H    Isotropic =    23.9507   Anisotropy =     5.9352

 79  H    Isotropic =    24.2046   Anisotropy =     8.7934

 80  H    Isotropic =    24.1800   Anisotropy =     4.1095

 81  H    Isotropic =    23.8717   Anisotropy =     6.5441

 82  H    Isotropic =    24.0282   Anisotropy =    10.1318

 83  Pt   Isotropic =  3077.0099   Anisotropy =  1692.4206

 84  Sn   Isotropic =  2208.7345   Anisotropy =   695.0123

 85  Cl   Isotropic =   705.5154   Anisotropy =   375.0467

 86  Cl   Isotropic =   728.0381   Anisotropy =   329.8697

 87  Cl   Isotropic =   724.6163   Anisotropy =   349.1975

 The electronic state is 1-A.
 Alpha  occ. eigenvalues -- ****************************************-427.58587
 Alpha  occ. eigenvalues -- -414.91684-414.91502-414.91349-149.67050-149.66566
 Alpha  occ. eigenvalues -- -149.65203-141.94868-141.94852-141.94796-141.94377
 Alpha  occ. eigenvalues -- -141.94368-141.94315-141.93016-141.93008-141.92955
 Alpha  occ. eigenvalues -- -100.56247-100.56241-100.56106-100.56032-100.55997
 Alpha  occ. eigenvalues -- -100.55868-100.54899-100.54838-100.54826 -99.96626
 Alpha  occ. eigenvalues --  -92.12594 -92.12267 -92.11996 -79.08388 -79.08265
 Alpha  occ. eigenvalues --  -79.08113 -79.07922 -79.07900 -76.44094 -76.43977
 Alpha  occ. eigenvalues --  -28.83425 -28.82941 -28.81549 -25.18069 -25.18028
 Alpha  occ. eigenvalues --  -25.17843 -25.17565 -25.17547 -25.17375 -25.16170
 Alpha  occ. eigenvalues --  -25.16154 -25.15990 -20.88086 -18.82615 -18.82426
 Alpha  occ. eigenvalues --  -18.82152 -18.82081 -18.82020 -18.81993 -17.72944
 Alpha  occ. eigenvalues --  -17.72942 -17.72817 -17.72792 -17.72760 -17.72448
 Alpha  occ. eigenvalues --  -17.72447 -17.72331 -17.72320 -17.72288 -17.71056
 Alpha  occ. eigenvalues --  -17.71056 -17.70946 -17.70936 -17.70905 -17.45153
 Alpha  occ. eigenvalues --  -17.44489 -17.43934 -11.63337 -11.62941 -11.62627
 Alpha  occ. eigenvalues --  -11.62225 -11.62176  -9.97580  -9.97575  -9.97478
 Alpha  occ. eigenvalues --   -9.97453  -9.97446  -9.97430  -9.90777  -9.90735
 Alpha  occ. eigenvalues --   -9.90704  -9.90662  -9.90655  -9.90627  -9.90616
 Alpha  occ. eigenvalues --   -9.90607  -9.90572  -9.90566  -9.90496  -9.90466
 Alpha  occ. eigenvalues --   -9.90462  -9.90396  -9.90375  -9.90373  -9.90360
 Alpha  occ. eigenvalues --   -9.90344  -9.90332  -9.90321  -9.90320  -9.90285
 Alpha  occ. eigenvalues --   -9.90283  -9.90200  -9.90187  -9.90133  -9.90104
 Alpha  occ. eigenvalues --   -9.89870  -9.89821  -9.89792  -9.14121  -9.14092
 Alpha  occ. eigenvalues --   -9.13958  -9.13897  -9.13860  -9.13727  -9.12758
 Alpha  occ. eigenvalues --   -9.12697  -9.12679  -6.97934  -6.97897  -6.97748
 Alpha  occ. eigenvalues --   -6.97705  -6.97662  -6.97528  -6.97309  -6.97279
 Alpha  occ. eigenvalues --   -6.97271  -6.97257  -6.97152  -6.97135  -6.97093
 Alpha  occ. eigenvalues --   -6.97046  -6.97045  -6.97028  -6.96915  -6.96893
 Alpha  occ. eigenvalues --   -6.96521  -6.96466  -6.96433  -6.95957  -6.95954
 Alpha  occ. eigenvalues --   -6.95903  -6.95887  -6.95881  -6.95878  -6.45759
 Alpha  occ. eigenvalues --   -6.45694  -4.68549  -4.68502  -4.68414  -4.68291
 Alpha  occ. eigenvalues --   -4.67915  -4.67874  -4.52110  -4.51630  -4.50183
 Alpha  occ. eigenvalues --   -3.25576  -3.25487  -3.25166  -3.25063  -3.25011
 Alpha  occ. eigenvalues --   -3.24713  -3.23613  -3.23567  -3.23249  -3.18220
 Alpha  occ. eigenvalues --   -3.18130  -3.17790  -3.17433  -3.17362  -3.17018
 Alpha  occ. eigenvalues --   -3.17010  -2.91000  -1.86560  -1.84963  -1.83551
 Alpha  occ. eigenvalues --   -1.04573  -1.04543  -1.04254  -1.04139  -1.04075
 Alpha  occ. eigenvalues --   -1.04072  -1.04066  -1.03870  -1.03774  -1.03739
 Alpha  occ. eigenvalues --   -1.03680  -1.03623  -1.02584  -1.02568  -1.02275
 Alpha  occ. eigenvalues --   -1.02210  -1.02109  -0.99126  -0.99034  -0.98837
 Alpha  occ. eigenvalues --   -0.98799  -0.79707  -0.79680  -0.79050  -0.78957
 Alpha  occ. eigenvalues --   -0.78807  -0.78784  -0.72997  -0.72692  -0.72229
 Alpha  occ. eigenvalues --   -0.72085  -0.71418  -0.71292  -0.71148  -0.71133
 Alpha  occ. eigenvalues --   -0.70922  -0.69915  -0.69868  -0.69177  -0.69171
 Alpha  occ. eigenvalues --   -0.69036  -0.69001  -0.68990  -0.68862  -0.68849
 Alpha  occ. eigenvalues --   -0.68696  -0.68626  -0.68363  -0.63436  -0.63259
 Alpha  occ. eigenvalues --   -0.59025  -0.59016  -0.58202  -0.57731  -0.56471
 Alpha  occ. eigenvalues --   -0.56438  -0.56363  -0.56157  -0.55977  -0.55843
 Alpha  occ. eigenvalues --   -0.52835  -0.52590  -0.51578  -0.51422  -0.51075
 Alpha  occ. eigenvalues --   -0.50676  -0.47876  -0.46340  -0.46148  -0.46005
 Alpha  occ. eigenvalues --   -0.45688  -0.45430  -0.45356  -0.44824  -0.44035
 Alpha  occ. eigenvalues --   -0.43540  -0.43248  -0.43125  -0.43054  -0.42997
 Alpha  occ. eigenvalues --   -0.42845  -0.42411  -0.41481  -0.41146  -0.40896
 Alpha  occ. eigenvalues --   -0.40193  -0.40148  -0.40012  -0.39902  -0.39849
 Alpha  occ. eigenvalues --   -0.39635  -0.39508  -0.39230  -0.38952  -0.38574
 Alpha  occ. eigenvalues --   -0.38495  -0.38365  -0.38262  -0.38053  -0.37991
 Alpha  occ. eigenvalues --   -0.37185  -0.35975  -0.35768  -0.35037  -0.34994
 Alpha  occ. eigenvalues --   -0.34804  -0.34355  -0.34030  -0.33555  -0.33443
 Alpha  occ. eigenvalues --   -0.33234  -0.33206  -0.33123  -0.32852  -0.32797
 Alpha  occ. eigenvalues --   -0.32771  -0.32606  -0.32591  -0.32506  -0.32343
 Alpha  occ. eigenvalues --   -0.32252  -0.32181  -0.32078  -0.31806  -0.31709
 Alpha  occ. eigenvalues --   -0.31553  -0.31440  -0.31250  -0.31015  -0.30825
 Alpha  occ. eigenvalues --   -0.30633  -0.30472  -0.30435  -0.29913  -0.29639
 Alpha  occ. eigenvalues --   -0.28823  -0.28599  -0.28096  -0.27992  -0.27894
 Alpha  occ. eigenvalues --   -0.27880  -0.27825  -0.27208  -0.26955  -0.26917
 Alpha  occ. eigenvalues --   -0.26874  -0.26646  -0.26562  -0.26404  -0.26077
 Alpha  occ. eigenvalues --   -0.26004  -0.25583  -0.25537  -0.25196  -0.24313
 Alpha  occ. eigenvalues --   -0.24274  -0.24160  -0.23915  -0.23848  -0.23733
 Alpha  occ. eigenvalues --   -0.23289  -0.23129  -0.23036  -0.22776  -0.22304
 Alpha  occ. eigenvalues --   -0.21919  -0.21846  -0.19860
 Alpha virt. eigenvalues --   -0.14232  -0.08347  -0.07373  -0.06897  -0.06642
 Alpha virt. eigenvalues --   -0.06049  -0.05833  -0.05669  -0.05616  -0.05367
 Alpha virt. eigenvalues --   -0.05092  -0.04983  -0.04794  -0.04700  -0.04526

 Mulliken atomic charges:
              1
     1  Sn   0.269811
     2  Cl  -0.155148
     3  Cl  -0.157187
     4  Cl  -0.187194
     5  P    0.226017
     6  O   -0.056448
     7  O   -0.043933
     8  O   -0.066969
     9  C   -0.709576
    10  C    0.567206
    11  C   -0.020136
    12  C   -0.402163
    13  C   -0.231141
    14  C    0.257421
    15  C   -0.796046
    16  C    0.306863
    17  C   -0.228751
    18  C   -0.318102
    19  C   -0.017246
    20  C    0.457250
    21  C   -0.663336
    22  C    0.168107
    23  C   -0.208233
    24  C   -0.294895
    25  C    0.046981
    26  C    0.360397
    27  Sn   0.305373
    28  P    0.172320
    29  Cl  -0.152352
    30  Cl  -0.154976
    31  Cl  -0.170619
    32  O   -0.063299
    33  O   -0.117969
    34  O   -0.057963
    35  C   -0.580842
    36  C   -0.808481
    37  C   -0.643096
    38  C    0.201833
    39  C    0.240942
    40  C    0.406590
    41  C    0.354034
    42  C    0.390991
    43  C    0.256035
    44  C    0.073932
    45  C   -0.248009
    46  C    0.032703
    47  C   -0.176277
    48  C    0.096193
    49  C   -0.296317
    50  C   -0.291415
    51  C   -0.352188
    52  C   -0.305567
    53  H    0.159563
    54  H    0.151017
    55  H    0.149848
    56  H    0.112712
    57  H    0.118448
    58  H    0.085008
    59  H    0.141834
    60  H    0.156253
    61  H    0.153380
    62  H    0.143991
    63  H    0.103626
    64  H    0.147469
    65  H    0.153778
    66  H    0.145115
    67  H    0.126602
    68  H    0.161337
    69  H    0.155769
    70  H    0.153444
    71  H    0.114611
    72  H    0.132409
    73  H    0.126201
    74  H    0.151594
    75  H    0.150679
    76  H    0.141421
    77  H    0.113930
    78  H    0.086799
    79  H    0.148557
    80  H    0.153844
    81  H    0.155781
    82  H    0.139562
    83  Pt  -1.016782
    84  Sn   0.414615
    85  Cl  -0.285656
    86  Cl  -0.253099
    87  Cl  -0.208786
 Sum of Mulliken atomic charges =  -1.00000

 Dipole moment (field-independent basis, Debye):
    X=             -0.8529    Y=              9.9880    Z=              4.6193  Tot=             11.0375
 Quadrupole moment (field-independent basis, Debye-Ang):
   XX=           -450.4465   YY=           -537.7216   ZZ=           -563.8728
   XY=              0.8402   XZ=            -19.9520   YZ=            -30.5859

 Normal termination of Gaussian 09 at Sun Jul  5 09:41:47 2020.
