 Gaussian 09, Revision A.02,
 Gaussian 09:  EM64L-G09RevA.02 11-Jun-2009

 ----------------------------------------------------------------------
 #PBEPBE/gen scf=(maxcycle=500,conver=3) NMR=GIAO Scrf=(solvent=Dichlor
 omethane)
 ----------------------------------------------------------------------

 -----------
 estrutura 6
 -----------
 Symbolic Z-matrix:
 Charge =  0 Multiplicity = 1

                         Standard orientation:
 ---------------------------------------------------------------------
 Center     Atomic      Atomic             Coordinates (Angstroms)
 Number     Number       Type             X           Y           Z
 ---------------------------------------------------------------------
      1         78           0       -0.134113   -0.022168   -0.054572
      2         50           0       -2.420073   -1.525368   -0.242105
      3         17           0       -3.485131   -1.891386    1.935392
      4         17           0       -4.391722   -0.872757   -1.517204
      5         17           0       -2.434392   -3.837422   -1.033119
      6         15           0       -1.317154    2.066858    0.164046
      7         15           0        1.170579   -2.045174   -0.076373
      8          6           0        2.992785   -2.009378    0.271913
      9          6           0        3.884026   -1.779319   -0.791355
     10          6           0        3.512658   -2.275019    1.549405
     11          6           0        5.263127   -1.842766   -0.583664
     12          1           0        3.502478   -1.553799   -1.786764
     13          6           0        4.895179   -2.327668    1.754546
     14          1           0        2.848188   -2.466980    2.391965
     15          6           0        5.773977   -2.121804    0.688249
     16          1           0        5.941313   -1.677555   -1.424285
     17          1           0        5.282079   -2.548564    2.752382
     18          1           0        6.853572   -2.183784    0.846007
     19          6           0        0.514933   -3.133785    1.264774
     20          6           0        0.232996   -4.499501    1.105174
     21          6           0        0.301573   -2.537271    2.522438
     22          6           0       -0.237108   -5.252336    2.185891
     23          1           0        0.349536   -4.980951    0.135323
     24          6           0       -0.159606   -3.294254    3.601176
     25          1           0        0.489847   -1.470307    2.661026
     26          6           0       -0.429223   -4.656061    3.435018
     27          1           0       -0.462567   -6.311946    2.043389
     28          1           0       -0.320332   -2.813801    4.569200
     29          1           0       -0.800021   -5.248402    4.275073
     30          6           0        1.128750   -2.948357   -1.678702
     31          6           0        1.794523   -4.179431   -1.829793
     32          6           0        0.496854   -2.372861   -2.794859
     33          6           0        1.790228   -4.836207   -3.061490
     34          1           0        2.328098   -4.626639   -0.991488
     35          6           0        0.513991   -3.022906   -4.032669
     36          1           0       -0.003682   -1.404628   -2.707593
     37          6           0        1.151837   -4.259014   -4.166540
     38          1           0        2.300777   -5.799961   -3.160806
     39          1           0        0.030406   -2.556833   -4.893066
     40          1           0        1.163003   -4.771028   -5.132467
     41          6           0       -3.173956    2.141010    0.122224
     42          6           0       -3.848310    2.661436   -0.996672
     43          6           0       -3.931623    1.673437    1.210158
     44          6           0       -5.243896    2.726164   -1.017307
     45          1           0       -3.294557    3.023061   -1.862248
     46          6           0       -5.326250    1.732737    1.181008
     47          1           0       -3.447530    1.250950    2.089670
     48          6           0       -5.987443    2.263071    0.070240
     49          1           0       -5.748742    3.140028   -1.893721
     50          1           0       -5.896199    1.357206    2.034103
     51          1           0       -7.079074    2.312280    0.051933
     52          6           0       -0.890191    3.205704   -1.217051
     53          6           0       -1.103838    4.596063   -1.179848
     54          6           0       -0.551464    2.608667   -2.444712
     55          6           0       -0.950298    5.369742   -2.333227
     56          1           0       -1.425594    5.085970   -0.263208
     57          6           0       -0.428292    3.381093   -3.603795
     58          1           0       -0.404069    1.528359   -2.504390
     59          6           0       -0.620125    4.764183   -3.549869
     60          1           0       -1.111452    6.449373   -2.282608
     61          1           0       -0.180502    2.894804   -4.550127
     62          1           0       -0.518362    5.369365   -4.454261
     63          6           0       -0.927009    2.720467    1.849535
     64          6           0       -0.577584    4.041956    2.169383
     65          6           0       -1.036037    1.781417    2.895369
     66          6           0       -0.359144    4.413884    3.501117
     67          1           0       -0.462515    4.802858    1.400121
     68          6           0       -0.828551    2.159044    4.223611
     69          1           0       -1.274591    0.738899    2.672656
     70          6           0       -0.490531    3.480257    4.531419
     71          1           0       -0.086420    5.447282    3.728863
     72          1           0       -0.924486    1.413410    5.016611
     73          1           0       -0.323800    3.778006    5.569428
     74          6           0        1.605099    1.070814    0.191631
     75          6           0        2.113879    1.332446    1.412529
     76          1           0        1.542666    1.074971    2.309019
     77          6           0        3.383162    2.039723    1.753746
     78          8           0        3.463529    2.826871    2.674878
     79          8           0        4.432376    1.685951    0.995232
     80          6           0        5.678976    2.363790    1.255003
     81          1           0        5.960240    2.196326    2.306599
     82          1           0        5.524260    3.447732    1.128315
     83          6           0        6.724925    1.824725    0.302704
     84          1           0        7.689984    2.319063    0.495578
     85          1           0        6.856823    0.740965    0.437376
     86          1           0        6.446226    2.010668   -0.746086
     87          6           0        2.330420    1.478784   -1.054067
     88          8           0        2.505890    0.751304   -2.009827
     89          8           0        2.754832    2.752146   -0.999352
     90          6           0        3.705234    3.222022   -1.981865
     91          1           0        4.552293    3.613936   -1.400735
     92          1           0        4.049145    2.364846   -2.575366
     93          6           0        3.115693    4.306405   -2.862899
     94          1           0        2.287883    3.920685   -3.473876
     95          1           0        2.742454    5.152269   -2.266102
     96          1           0        3.898369    4.683878   -3.539516
 ---------------------------------------------------------------------

 SCF Done:  E(RPBE-PBE) =  -27154.1339102     A.U. after    8 cycles

  1  Pt   Isotropic =  2883.7359   Anisotropy =  1175.8877

  2  Sn   Isotropic =  2176.4161   Anisotropy =   774.1735

  3  Cl   Isotropic =   776.7823   Anisotropy =   303.2404

  4  Cl   Isotropic =   791.0007   Anisotropy =   304.1288

  5  Cl   Isotropic =   767.2671   Anisotropy =   261.3051

  6  P    Isotropic =   278.3885   Anisotropy =    66.0313

  7  P    Isotropic =   298.6290   Anisotropy =   101.5563

  8  C    Isotropic =   141.9962   Anisotropy =   189.1132

  9  C    Isotropic =   144.0995   Anisotropy =   346.6009

 10  C    Isotropic =   152.9434   Anisotropy =   375.8387

 11  C    Isotropic =    -8.7996   Anisotropy =    58.3385

 12  H    Isotropic =    24.8137   Anisotropy =    17.4520

 13  C    Isotropic =    -8.1600   Anisotropy =    58.7628

 14  H    Isotropic =    25.5492   Anisotropy =    18.0280

 15  C    Isotropic =   -35.9455   Anisotropy =    56.9181

 16  H    Isotropic =    17.4280   Anisotropy =    18.1237

 17  H    Isotropic =    17.7856   Anisotropy =    17.6483

 18  H    Isotropic =    15.9091   Anisotropy =    16.5679

 19  C    Isotropic =   136.8130   Anisotropy =   144.7346

 20  C    Isotropic =   170.4961   Anisotropy =   377.1415

 21  C    Isotropic =   108.4451   Anisotropy =   315.5523

 22  C    Isotropic =   -43.4901   Anisotropy =   118.5357

 23  H    Isotropic =    24.6472   Anisotropy =    11.6189

 24  C    Isotropic =   -21.1847   Anisotropy =    76.3621

 25  H    Isotropic =    25.0569   Anisotropy =    11.6117

 26  C    Isotropic =   -52.0887   Anisotropy =    84.9971

 27  H    Isotropic =    13.7936   Anisotropy =    20.2639

 28  H    Isotropic =    15.2908   Anisotropy =    17.7550

 29  H    Isotropic =     9.8064   Anisotropy =    25.2672

 30  C    Isotropic =   110.3925   Anisotropy =   103.8714

 31  C    Isotropic =   153.9756   Anisotropy =   338.7232

 32  C    Isotropic =    79.6352   Anisotropy =   294.6564

 33  C    Isotropic =   -40.4024   Anisotropy =   113.5321

 34  H    Isotropic =    22.2524   Anisotropy =    16.6162

 35  C    Isotropic =   -32.1613   Anisotropy =    69.9714

 36  H    Isotropic =    23.9811   Anisotropy =     9.6229

 37  C    Isotropic =   -29.8954   Anisotropy =   148.1436

 38  H    Isotropic =    12.1338   Anisotropy =    21.1755

 39  H    Isotropic =    16.4707   Anisotropy =    15.9094

 40  H    Isotropic =     8.4404   Anisotropy =    26.1337

 41  C    Isotropic =   102.1184   Anisotropy =   277.6705

 42  C    Isotropic =   104.6934   Anisotropy =   302.1789

 43  C    Isotropic =   115.6452   Anisotropy =   346.2564

 44  C    Isotropic =     1.9139   Anisotropy =    75.3426

 45  H    Isotropic =    25.7179   Anisotropy =    16.6532

 46  C    Isotropic =    20.1904   Anisotropy =   112.0957

 47  H    Isotropic =    24.2930   Anisotropy =    11.1661

 48  C    Isotropic =   -44.3440   Anisotropy =    96.0653

 49  H    Isotropic =    21.3188   Anisotropy =    12.1618

 50  H    Isotropic =    21.9147   Anisotropy =    12.4556

 51  H    Isotropic =    20.7290   Anisotropy =     9.6750

 52  C    Isotropic =    40.1096   Anisotropy =   114.0537

 53  C    Isotropic =    65.9377   Anisotropy =   228.3867

 54  C    Isotropic =    20.9939   Anisotropy =   150.8513

 55  C    Isotropic =    17.7296   Anisotropy =   135.1310

 56  H    Isotropic =    23.1540   Anisotropy =    11.2095

 57  C    Isotropic =     8.5811   Anisotropy =   141.5188

 58  H    Isotropic =    24.9660   Anisotropy =    10.7409

 59  C    Isotropic =    38.2679   Anisotropy =   283.4608

 60  H    Isotropic =    17.8751   Anisotropy =    12.1161

 61  H    Isotropic =    20.7285   Anisotropy =    11.0566

 62  H    Isotropic =    17.4855   Anisotropy =    13.8021

 63  C    Isotropic =    55.0618   Anisotropy =   184.9330

 64  C    Isotropic =    64.8973   Anisotropy =   218.6800

 65  C    Isotropic =    46.7136   Anisotropy =   199.2530

 66  C    Isotropic =    10.9224   Anisotropy =   146.4756

 67  H    Isotropic =    23.1145   Anisotropy =    10.9006

 68  C    Isotropic =    28.2093   Anisotropy =   176.1663

 69  H    Isotropic =    24.3561   Anisotropy =    10.7789

 70  C    Isotropic =    19.5142   Anisotropy =   223.8659

 71  H    Isotropic =    18.3456   Anisotropy =    12.6814

 72  H    Isotropic =    21.5142   Anisotropy =    11.1209

 73  H    Isotropic =    17.9605   Anisotropy =    13.2777

 74  C    Isotropic =    -5.8295   Anisotropy =   156.3948

 75  C    Isotropic =    88.5813   Anisotropy =   183.0299

 76  H    Isotropic =    26.9480   Anisotropy =     9.5915

 77  C    Isotropic =    44.6804   Anisotropy =    99.3069

 78  O    Isotropic =   -41.4181   Anisotropy =   572.8433

 79  O    Isotropic =    69.6267   Anisotropy =   146.0454

 80  C    Isotropic =   124.3346   Anisotropy =    58.4958

 81  H    Isotropic =    28.2284   Anisotropy =     8.8389

 82  H    Isotropic =    28.4555   Anisotropy =     8.3455

 83  C    Isotropic =   167.0627   Anisotropy =    22.3069

 84  H    Isotropic =    30.5941   Anisotropy =    13.9472

 85  H    Isotropic =    31.2645   Anisotropy =     7.0783

 86  H    Isotropic =    31.2935   Anisotropy =     3.9498

 87  C    Isotropic =    16.0705   Anisotropy =    86.9112

 88  O    Isotropic =   -76.6379   Anisotropy =   558.6201

 89  O    Isotropic =    88.0429   Anisotropy =   151.7525

 90  C    Isotropic =   116.6170   Anisotropy =    74.3969

 91  H    Isotropic =    28.9860   Anisotropy =    10.3004

 92  H    Isotropic =    27.9499   Anisotropy =     7.7876

 93  C    Isotropic =   163.5988   Anisotropy =    27.6247

 94  H    Isotropic =    32.3949   Anisotropy =     8.1974

 95  H    Isotropic =    31.9035   Anisotropy =     6.3279

 96  H    Isotropic =    30.6875   Anisotropy =    13.9723

 The electronic state is 1-A.
 Alpha  occ. eigenvalues -- ********************-427.55247-414.88297-414.88275
 Alpha  occ. eigenvalues -- -414.87983-149.64672-141.92472-141.92469-141.92398
 Alpha  occ. eigenvalues -- -100.55806-100.55772-100.55654 -99.93299 -92.09159
 Alpha  occ. eigenvalues --  -92.09061 -92.08657 -79.05047 -79.04927 -79.04699
 Alpha  occ. eigenvalues --  -79.04653 -79.04593 -76.32231 -76.32012 -28.81169
 Alpha  occ. eigenvalues --  -25.15798 -25.15792 -25.15565 -20.84830 -18.80330
 Alpha  occ. eigenvalues --  -18.79942 -18.75646 -18.74479 -17.70678 -17.70677
 Alpha  occ. eigenvalues --  -17.70524 -17.70521 -17.70475 -17.41679 -17.41496
 Alpha  occ. eigenvalues --  -17.40643 -11.60087 -11.59665 -11.59190 -11.59108
 Alpha  occ. eigenvalues --  -11.58985 -10.03232 -10.01807  -9.94991  -9.94340
 Alpha  occ. eigenvalues --   -9.93600  -9.93531  -9.93400  -9.93319  -9.93197
 Alpha  occ. eigenvalues --   -9.92998  -9.92041  -9.91964  -9.91931  -9.91777
 Alpha  occ. eigenvalues --   -9.91486  -9.91446  -9.91441  -9.91336  -9.91264
 Alpha  occ. eigenvalues --   -9.91250  -9.91119  -9.90957  -9.90927  -9.90923
 Alpha  occ. eigenvalues --   -9.90913  -9.90895  -9.90800  -9.90776  -9.90519
 Alpha  occ. eigenvalues --   -9.90385  -9.90306  -9.90295  -9.90215  -9.90188
 Alpha  occ. eigenvalues --   -9.90134  -9.90131  -9.90126  -9.90097  -9.89977
 Alpha  occ. eigenvalues --   -9.89898  -9.89837  -9.89633  -9.88507  -9.88047
 Alpha  occ. eigenvalues --   -9.13480  -9.13439  -9.13339  -6.97266  -6.97243
 Alpha  occ. eigenvalues --   -6.97136  -6.96699  -6.96689  -6.96663  -6.96625
 Alpha  occ. eigenvalues --   -6.96556  -6.96535  -6.35347  -6.35174  -4.57879
 Alpha  occ. eigenvalues --   -4.57859  -4.57712  -4.57677  -4.57587  -4.57406
 Alpha  occ. eigenvalues --   -4.50051  -3.23505  -3.23483  -3.23095  -3.14959
 Alpha  occ. eigenvalues --   -3.14932  -3.14438  -3.14139  -3.13982  -3.13925
 Alpha  occ. eigenvalues --   -3.13867  -2.87894  -1.82888  -1.82813  -1.80147
 Alpha  occ. eigenvalues --   -1.02654  -1.02584  -1.02569  -1.02218  -1.02171
 Alpha  occ. eigenvalues --   -1.02075  -1.01836  -0.94203  -0.93649  -0.80322
 Alpha  occ. eigenvalues --   -0.80227  -0.79522  -0.79282  -0.79021  -0.79014
 Alpha  occ. eigenvalues --   -0.74162  -0.72170  -0.72080  -0.71913  -0.70778
 Alpha  occ. eigenvalues --   -0.70374  -0.70217  -0.69552  -0.69440  -0.69303
 Alpha  occ. eigenvalues --   -0.69186  -0.69055  -0.69023  -0.68859  -0.68574
 Alpha  occ. eigenvalues --   -0.68532  -0.68482  -0.68455  -0.62024  -0.61406
 Alpha  occ. eigenvalues --   -0.61152  -0.59031  -0.56625  -0.56441  -0.56367
 Alpha  occ. eigenvalues --   -0.55980  -0.55738  -0.55533  -0.55466  -0.55140
 Alpha  occ. eigenvalues --   -0.55061  -0.54997  -0.54941  -0.52468  -0.52150
 Alpha  occ. eigenvalues --   -0.51717  -0.50338  -0.48146  -0.47926  -0.47827
 Alpha  occ. eigenvalues --   -0.47778  -0.47688  -0.46320  -0.45887  -0.45405
 Alpha  occ. eigenvalues --   -0.43424  -0.42876  -0.42737  -0.42417  -0.42399
 Alpha  occ. eigenvalues --   -0.42193  -0.41951  -0.41793  -0.41682  -0.41570
 Alpha  occ. eigenvalues --   -0.41545  -0.41497  -0.41222  -0.41103  -0.40882
 Alpha  occ. eigenvalues --   -0.40681  -0.40443  -0.39296  -0.39257  -0.38875
 Alpha  occ. eigenvalues --   -0.38787  -0.38644  -0.38520  -0.38292  -0.38254
 Alpha  occ. eigenvalues --   -0.38024  -0.37694  -0.37501  -0.37470  -0.37334
 Alpha  occ. eigenvalues --   -0.36846  -0.35718  -0.35597  -0.35338  -0.35077
 Alpha  occ. eigenvalues --   -0.34775  -0.34662  -0.34534  -0.34206  -0.33918
 Alpha  occ. eigenvalues --   -0.33738  -0.33320  -0.32875  -0.32578  -0.32467
 Alpha  occ. eigenvalues --   -0.32081  -0.31969  -0.31862  -0.31722  -0.31545
 Alpha  occ. eigenvalues --   -0.31501  -0.31355  -0.31033  -0.30974  -0.30912
 Alpha  occ. eigenvalues --   -0.30568  -0.30262  -0.29972  -0.29667  -0.29478
 Alpha  occ. eigenvalues --   -0.28651  -0.28443  -0.27524  -0.27480  -0.27277
 Alpha  occ. eigenvalues --   -0.27104  -0.27045  -0.26128  -0.25968  -0.25909
 Alpha  occ. eigenvalues --   -0.25785  -0.25557  -0.25413  -0.25009  -0.24936
 Alpha  occ. eigenvalues --   -0.24855  -0.24565  -0.24468  -0.24233  -0.24165
 Alpha  occ. eigenvalues --   -0.23981  -0.23869  -0.23634  -0.23557  -0.23086
 Alpha  occ. eigenvalues --   -0.22584  -0.22499  -0.21221
 Alpha virt. eigenvalues --   -0.10819  -0.08637  -0.07870  -0.07606  -0.07284
 Alpha virt. eigenvalues --   -0.06894  -0.06763  -0.06444  -0.06251  -0.06026
 Alpha virt. eigenvalues --   -0.05950  -0.05524  -0.05420  -0.04926  -0.04659

 Mulliken atomic charges:
              1
     1  Pt   0.184857
     2  Sn   0.286497
     3  Cl  -0.285948
     4  Cl  -0.202975
     5  Cl  -0.212724
     6  P    0.919644
     7  P    1.223429
     8  C   -1.112383
     9  C    0.694808
    10  C    0.298248
    11  C   -0.072462
    12  H    0.090531
    13  C   -0.130575
    14  H    0.077711
    15  C   -0.614792
    16  H    0.126415
    17  H    0.135386
    18  H    0.138018
    19  C   -0.992942
    20  C    0.161483
    21  C    0.660519
    22  C   -0.162761
    23  H    0.091401
    24  C    0.050810
    25  H    0.038204
    26  C   -0.545801
    27  H    0.138362
    28  H    0.129595
    29  H    0.145733
    30  C   -0.842396
    31  C    0.391839
    32  C    0.298857
    33  C    0.045875
    34  H    0.096820
    35  C   -0.165505
    36  H    0.073585
    37  C   -0.631106
    38  H    0.141235
    39  H    0.139085
    40  H    0.149419
    41  C   -1.098162
    42  C    0.394441
    43  C    0.279890
    44  C   -0.094819
    45  H    0.088026
    46  C   -0.117082
    47  H    0.080686
    48  C   -0.474428
    49  H    0.137141
    50  H    0.142402
    51  H    0.146427
    52  C   -0.693362
    53  C    0.185655
    54  C    0.530313
    55  C   -0.058356
    56  H    0.084709
    57  C   -0.064491
    58  H    0.037360
    59  C   -0.585223
    60  H    0.142651
    61  H    0.116110
    62  H    0.138459
    63  C   -0.579236
    64  C    0.112564
    65  C    0.527307
    66  C   -0.264739
    67  H    0.074315
    68  C    0.085482
    69  H    0.030018
    70  C   -0.525578
    71  H    0.142604
    72  H    0.135824
    73  H    0.152936
    74  C    0.531566
    75  C   -0.242943
    76  H    0.035018
    77  C   -0.336039
    78  O   -0.144939
    79  O   -0.026869
    80  C   -0.339906
    81  H    0.157497
    82  H    0.141322
    83  C   -0.092236
    84  H    0.137108
    85  H    0.080660
    86  H    0.101357
    87  C    0.054165
    88  O   -0.237809
    89  O   -0.125201
    90  C   -0.241088
    91  H    0.108769
    92  H    0.116704
    93  C   -0.177748
    94  H    0.087628
    95  H    0.106347
    96  H    0.140797
 Sum of Mulliken atomic charges =   0.00000

 Dipole moment (field-independent basis, Debye):
    X=             10.7322    Y=              7.1961    Z=             -1.3836  Tot=             12.9954
 Quadrupole moment (field-independent basis, Debye-Ang):
   XX=           -393.2802   YY=           -360.0217   ZZ=           -358.9035
   XY=            -36.0082   XZ=            -13.6472   YZ=            -20.5554

 Normal termination of Gaussian 09 at Tue Jun 18 09:34:53 2019.
