 Gaussian 09, Revision A.02,
 Gaussian 09:  EM64L-G09RevA.02 11-Jun-2009

 ----------------------------------------------------------------------
 #PBEPBE/gen scf=(maxcycle=500,conver=4) NMR=GIAO Scrf=(solvent=Dichlor
 omethane)
 ----------------------------------------------------------------------

 ------------
 estrutura 48
 ------------
 Symbolic Z-matrix:
 Charge =  0 Multiplicity = 1

                         Standard orientation:
 ---------------------------------------------------------------------
 Center     Atomic      Atomic             Coordinates (Angstroms)
 Number     Number       Type             X           Y           Z
 ---------------------------------------------------------------------
      1         78           0        2.335037   -0.722510   -0.355567
      2         17           0        0.463975   -2.367469   -0.953538
      3         17           0        3.730020   -2.446627    0.455652
      4         17           0        0.731622    0.889190   -1.209166
      5         15           0        3.967860    0.766380    0.195408
      6          6           0        4.346008    0.698620    1.997241
      7          1           0        5.170533    1.402360    2.194684
      8          1           0        4.725831   -0.318425    2.178585
      9          6           0        3.138874    0.995333    2.894918
     10          1           0        2.721571    1.996910    2.711992
     11          1           0        2.333861    0.261201    2.729811
     12          1           0        3.434495    0.947970    3.953684
     13          6           0        3.513035    2.511771   -0.207816
     14          1           0        2.445521    2.613825    0.035674
     15          1           0        3.580735    2.589011   -1.305000
     16          6           0        4.319356    3.624172    0.476035
     17          1           0        3.963639    4.600981    0.115692
     18          1           0        4.191155    3.611994    1.568393
     19          1           0        5.395134    3.565095    0.258818
     20          6           0        5.514722    0.335046   -0.716951
     21          1           0        5.214216    0.272683   -1.776445
     22          1           0        5.732104   -0.698089   -0.400749
     23          6           0        6.740642    1.237791   -0.550577
     24          1           0        7.598850    0.773324   -1.059954
     25          1           0        6.591014    2.228307   -1.004747
     26          1           0        7.021445    1.378074    0.504393
     27         78           0       -1.156764   -0.563719   -0.394872
     28         50           0       -2.421504    1.648814    0.022419
     29         17           0       -1.571473    2.876908    1.914285
     30         17           0       -2.206242    3.257751   -1.748501
     31         17           0       -4.799016    1.838379    0.417704
     32         15           0       -2.813939   -2.004927    0.260869
     33          6           0       -2.158003   -3.664027    0.742143
     34          1           0       -3.048922   -4.298124    0.892662
     35          1           0       -1.639561   -4.042128   -0.151695
     36          6           0       -1.227814   -3.725091    1.955240
     37          1           0       -0.376981   -3.036316    1.842900
     38          1           0       -1.748617   -3.485433    2.893561
     39          1           0       -0.821803   -4.743448    2.054891
     40          6           0       -3.971511   -2.406813   -1.126379
     41          1           0       -3.464079   -3.177510   -1.731165
     42          1           0       -4.851218   -2.887633   -0.659195
     43          6           0       -4.398779   -1.234066   -2.016712
     44          1           0       -4.909529   -0.436138   -1.451804
     45          1           0       -3.527002   -0.796365   -2.530582
     46          1           0       -5.101277   -1.594865   -2.785264
     47          6           0       -3.922018   -1.455737    1.631861
     48          1           0       -4.588575   -0.702354    1.185467
     49          1           0       -4.548344   -2.332910    1.869265
     50          6           0       -3.267450   -0.890141    2.895763
     51          1           0       -2.737945   -1.659937    3.472590
     52          1           0       -2.546386   -0.090441    2.668800
     53          1           0       -4.042178   -0.457706    3.545882
 ---------------------------------------------------------------------

 SCF Done:  E(RPBE-PBE) =  -44120.0390777     A.U. after   10 cycles

  1  Pt   Isotropic =  1765.4447   Anisotropy =  3343.9850

  2  Cl   Isotropic =   933.5106   Anisotropy =   274.3984

  3  Cl   Isotropic =   939.0748   Anisotropy =   206.2696

  4  Cl   Isotropic =  1000.1786   Anisotropy =   363.0732

  5  P    Isotropic =   191.6188   Anisotropy =   157.5645

  6  C    Isotropic =   159.3838   Anisotropy =    15.2174

  7  H    Isotropic =    29.0758   Anisotropy =     9.5547

  8  H    Isotropic =    29.1745   Anisotropy =     6.1240

  9  C    Isotropic =   173.2721   Anisotropy =    16.5309

 10  H    Isotropic =    30.3105   Anisotropy =     6.4957

 11  H    Isotropic =    29.4734   Anisotropy =     7.4227

 12  H    Isotropic =    30.0577   Anisotropy =    12.4998

 13  C    Isotropic =   155.1531   Anisotropy =    33.8044

 14  H    Isotropic =    28.5056   Anisotropy =    12.9682

 15  H    Isotropic =    29.3496   Anisotropy =     4.8674

 16  C    Isotropic =   170.4962   Anisotropy =    24.9852

 17  H    Isotropic =    30.0672   Anisotropy =    12.0269

 18  H    Isotropic =    30.1430   Anisotropy =     7.3499

 19  H    Isotropic =    30.1784   Anisotropy =     9.6128

 20  C    Isotropic =   146.4232   Anisotropy =    37.3184

 21  H    Isotropic =    29.0012   Anisotropy =     7.5697

 22  H    Isotropic =    28.5420   Anisotropy =     8.9567

 23  C    Isotropic =   169.6454   Anisotropy =    22.7756

 24  H    Isotropic =    29.9861   Anisotropy =    13.2059

 25  H    Isotropic =    30.1599   Anisotropy =     8.6007

 26  H    Isotropic =    30.2282   Anisotropy =     8.3730

 27  Pt   Isotropic =  2896.2657   Anisotropy =  2566.8671

 28  Sn   Isotropic =  2089.3647   Anisotropy =   795.8395

 29  Cl   Isotropic =   733.8203   Anisotropy =   370.2544

 30  Cl   Isotropic =   748.5337   Anisotropy =   335.7059

 31  Cl   Isotropic =   738.1796   Anisotropy =   327.3393

 32  P    Isotropic =   194.3419   Anisotropy =   187.3174

 33  C    Isotropic =   148.2780   Anisotropy =    29.4031

 34  H    Isotropic =    29.6147   Anisotropy =    10.2155

 35  H    Isotropic =    28.8367   Anisotropy =     5.2231

 36  C    Isotropic =   170.8721   Anisotropy =    17.2064

 37  H    Isotropic =    29.6980   Anisotropy =     8.2536

 38  H    Isotropic =    30.2250   Anisotropy =     8.1195

 39  H    Isotropic =    30.1692   Anisotropy =    12.4032

 40  C    Isotropic =   149.3347   Anisotropy =    33.5731

 41  H    Isotropic =    29.5167   Anisotropy =     8.7725

 42  H    Isotropic =    29.4564   Anisotropy =    10.9915

 43  C    Isotropic =   167.5337   Anisotropy =    15.8321

 44  H    Isotropic =    29.8867   Anisotropy =     6.7996

 45  H    Isotropic =    30.1783   Anisotropy =     6.1240

 46  H    Isotropic =    29.9543   Anisotropy =    14.0990

 47  C    Isotropic =   150.6610   Anisotropy =    31.7763

 48  H    Isotropic =    28.4199   Anisotropy =     7.2097

 49  H    Isotropic =    29.8325   Anisotropy =    10.4189

 50  C    Isotropic =   168.8698   Anisotropy =    19.0504

 51  H    Isotropic =    30.0195   Anisotropy =     8.5078

 52  H    Isotropic =    29.8991   Anisotropy =     8.4853

 53  H    Isotropic =    30.0488   Anisotropy =    12.0566

 The electronic state is 1-A.
 Alpha  occ. eigenvalues -- ******************************-427.54661-427.53710
 Alpha  occ. eigenvalues -- -414.87726-414.87656-414.87367-414.86801-414.86701
 Alpha  occ. eigenvalues -- -414.86385-149.66913-141.94725-141.94717-141.94653
 Alpha  occ. eigenvalues -- -100.57345-100.56815-100.56753-100.56702-100.55629
 Alpha  occ. eigenvalues -- -100.53731 -99.92729 -99.91776 -92.08636 -92.08485
 Alpha  occ. eigenvalues --  -92.08038 -92.07772 -92.07486 -92.07040 -79.04507
 Alpha  occ. eigenvalues --  -79.04376 -79.04129 -79.04045 -79.03983 -79.03619
 Alpha  occ. eigenvalues --  -79.03431 -79.03206 -79.03024 -79.02999 -76.32320
 Alpha  occ. eigenvalues --  -76.32161 -28.83317 -25.17955 -25.17931 -25.17722
 Alpha  occ. eigenvalues --  -20.84206 -20.83233 -17.72837 -17.72836 -17.72695
 Alpha  occ. eigenvalues --  -17.72680 -17.72641 -17.41147 -17.40856 -17.40341
 Alpha  occ. eigenvalues --  -17.39922 -17.39809 -17.38854 -11.59544 -11.59079
 Alpha  occ. eigenvalues --  -11.58742 -11.58576 -11.58403 -11.58276 -11.58095
 Alpha  occ. eigenvalues --  -11.57662 -11.57266 -11.57247  -9.91839  -9.91648
 Alpha  occ. eigenvalues --   -9.91581  -9.91474  -9.91436  -9.91369  -9.89531
 Alpha  occ. eigenvalues --   -9.89472  -9.89452  -9.89416  -9.89332  -9.89196
 Alpha  occ. eigenvalues --   -9.15140  -9.14693  -9.14609  -9.14561  -9.13455
 Alpha  occ. eigenvalues --   -9.11553  -6.98762  -6.98613  -6.98495  -6.98418
 Alpha  occ. eigenvalues --   -6.98381  -6.98217  -6.97868  -6.97866  -6.97789
 Alpha  occ. eigenvalues --   -6.97777  -6.97737  -6.97720  -6.97032  -6.96932
 Alpha  occ. eigenvalues --   -6.96570  -6.95399  -6.94723  -6.94701  -6.35262
 Alpha  occ. eigenvalues --   -6.35108  -4.57735  -4.57728  -4.57665  -4.57588
 Alpha  occ. eigenvalues --   -4.57562  -4.57516  -4.52072  -3.25523  -3.25474
 Alpha  occ. eigenvalues --   -3.25135  -3.14402  -3.14366  -3.13827  -3.13555
 Alpha  occ. eigenvalues --   -3.13496  -3.13491  -3.13338  -3.13186  -3.13143
 Alpha  occ. eigenvalues --   -3.12937  -3.12439  -3.12378  -3.12076  -3.12072
 Alpha  occ. eigenvalues --   -2.87201  -2.86224  -1.82523  -1.81991  -1.81682
 Alpha  occ. eigenvalues --   -1.81056  -1.79330  -1.78153  -1.04614  -1.04586
 Alpha  occ. eigenvalues --   -1.04220  -1.04168  -1.04114  -0.74598  -0.74449
 Alpha  occ. eigenvalues --   -0.73538  -0.72783  -0.71854  -0.71756  -0.71014
 Alpha  occ. eigenvalues --   -0.70213  -0.70090  -0.69940  -0.69836  -0.68893
 Alpha  occ. eigenvalues --   -0.62379  -0.62166  -0.57535  -0.57288  -0.56877
 Alpha  occ. eigenvalues --   -0.56142  -0.50743  -0.49586  -0.43946  -0.43250
 Alpha  occ. eigenvalues --   -0.43157  -0.42867  -0.42267  -0.41313  -0.41053
 Alpha  occ. eigenvalues --   -0.40598  -0.39152  -0.38433  -0.38425  -0.37820
 Alpha  occ. eigenvalues --   -0.37738  -0.37496  -0.36629  -0.36209  -0.35554
 Alpha  occ. eigenvalues --   -0.35256  -0.35177  -0.34722  -0.34404  -0.34301
 Alpha  occ. eigenvalues --   -0.33901  -0.33791  -0.33638  -0.33472  -0.32927
 Alpha  occ. eigenvalues --   -0.32747  -0.32270  -0.31793  -0.31690  -0.31379
 Alpha  occ. eigenvalues --   -0.30856  -0.30231  -0.29894  -0.29664  -0.29442
 Alpha  occ. eigenvalues --   -0.29221  -0.28847  -0.28737  -0.28492  -0.28360
 Alpha  occ. eigenvalues --   -0.28083  -0.27394  -0.27249  -0.27062  -0.26882
 Alpha  occ. eigenvalues --   -0.26618  -0.26167  -0.25439  -0.24717  -0.24478
 Alpha  occ. eigenvalues --   -0.23560  -0.22528  -0.22225  -0.21423  -0.21215
 Alpha virt. eigenvalues --   -0.13096  -0.12008  -0.05877  -0.04160  -0.03972
 Alpha virt. eigenvalues --   -0.02515  -0.01840  -0.01588  -0.01062  -0.00760
 Alpha virt. eigenvalues --   -0.00563  -0.00164   0.00199   0.00944   0.01133

 Mulliken atomic charges:
              1
     1  Pt   0.388735
     2  Cl  -0.428820
     3  Cl  -0.399372
     4  Cl  -0.409283
     5  P    0.184719
     6  C   -0.344714
     7  H    0.123264
     8  H    0.115022
     9  C   -0.134179
    10  H    0.098865
    11  H    0.082084
    12  H    0.141497
    13  C   -0.351029
    14  H    0.096676
    15  H    0.110262
    16  C   -0.167561
    17  H    0.135733
    18  H    0.111723
    19  H    0.112016
    20  C   -0.332373
    21  H    0.104453
    22  H    0.124202
    23  C   -0.222546
    24  H    0.144777
    25  H    0.121623
    26  H    0.117985
    27  Pt   0.285531
    28  Sn   0.379224
    29  Cl  -0.191260
    30  Cl  -0.166244
    31  Cl  -0.192577
    32  P    0.322063
    33  C   -0.448829
    34  H    0.120443
    35  H    0.099372
    36  C   -0.060394
    37  H    0.065606
    38  H    0.107489
    39  H    0.134113
    40  C   -0.394392
    41  H    0.110493
    42  H    0.109325
    43  C   -0.085312
    44  H    0.083621
    45  H    0.078583
    46  H    0.129200
    47  C   -0.458575
    48  H    0.095823
    49  H    0.112250
    50  C   -0.033958
    51  H    0.104573
    52  H    0.043601
    53  H    0.126471
 Sum of Mulliken atomic charges =   0.00000

 Dipole moment (field-independent basis, Debye):
    X=              2.5619    Y=             -3.7598    Z=              2.3634  Tot=              5.1268
 Quadrupole moment (field-independent basis, Debye-Ang):
   XX=           -228.7172   YY=           -281.2700   ZZ=           -265.0280
   XY=             70.7741   XZ=             -0.5362   YZ=             -2.2469

 Normal termination of Gaussian 09 at Sat Jun 15 07:24:44 2019.
