 Gaussian 09, Revision D.01,
 Gaussian 09:  EM64L-G09RevD.01 24-Apr-2013

 ----------------------------------------------------------------------
 #PBEPBE/gen scf=(maxcycle=500,conver=4) NMR=GIAO Scrf=(solvent=Dichlor
 omethane)
 ----------------------------------------------------------------------

 ------------
 estrutura 58
 ------------
 Symbolic Z-matrix:
 Charge =  0 Multiplicity = 1

                         Standard orientation:
 ---------------------------------------------------------------------
 Center     Atomic      Atomic             Coordinates (Angstroms)
 Number     Number       Type             X           Y           Z
 ---------------------------------------------------------------------
      1         15           0       -0.369426    1.692768    0.643348
      2          6           0        0.669017    2.910036   -0.217086
      3          6           0       -0.099948    3.804333   -0.884607
      4          6           0       -1.570295    3.600226   -0.688179
      5          6           0       -1.878598    2.557422    0.120336
      6          6           0        0.425463    4.905562   -1.759456
      7          6           0       -2.575717    4.492666   -1.357153
      8          1           0        1.760206    2.886981   -0.224956
      9          1           0       -2.892951    2.251370    0.365263
     10          1           0        0.016047    5.886403   -1.462970
     11          1           0        1.522544    4.956216   -1.718209
     12          1           0        0.129570    4.745447   -2.811984
     13          1           0       -2.420755    5.548448   -1.077694
     14          1           0       -2.474834    4.439102   -2.455429
     15          1           0       -3.604543    4.212035   -1.089533
     16         78           0       -0.014190   -0.426719   -0.169346
     17          6           0       -0.140206    1.941973    2.515984
     18         50           0        2.720955   -0.226899   -0.384307
     19         17           0        3.814986   -0.688809   -2.522782
     20         17           0        3.823650   -1.898876    1.038733
     21         17           0        4.143461    1.704832    0.255401
     22          6           0       -0.205991    3.444250    2.844981
     23          1           0       -1.165088    3.888207    2.535041
     24          1           0        0.610086    4.007561    2.367759
     25         15           0       -2.210738   -1.321598   -0.285754
     26          6           0       -1.263067    1.193421    3.254115
     27          1           0       -2.257984    1.604532    3.019715
     28          1           0       -1.258098    0.117737    3.019179
     29          1           0       -1.110766    1.297905    4.341233
     30          6           0        1.228162    1.363941    2.923790
     31          1           0        2.063893    1.832768    2.384231
     32          1           0        1.385475    1.541599    4.000390
     33          1           0        1.276275    0.276645    2.754441
     34          1           0       -0.110331    3.573927    3.936668
     35         17           0        0.514827   -2.575427   -1.250722
     36          6           0       -1.182134   -3.695361    1.158955
     37          6           0       -1.333808   -4.931993    0.356832
     38          1           0       -2.032783   -4.798343   -0.481383
     39          1           0       -0.368306   -5.321102    0.006242
     40          1           0       -1.773262   -5.692366    1.034858
     41          6           0       -2.244619   -2.758551    1.221536
     42          1           0       -5.686056   -2.612387   -0.255074
     43          1           0       -3.229342   -3.177055    0.978723
     44          1           0       -2.235962   -2.130219    2.118842
     45          6           0        0.045341   -3.532965    1.969467
     46          1           0        0.927774   -3.528531    1.307588
     47          1           0        0.040621   -2.625777    2.586011
     48          1           0        0.151625   -4.423581    2.616820
     49          6           0       -3.466648   -0.297107    0.557992
     50          1           0       -3.216843    0.205691    1.498625
     51          6           0       -4.710699   -0.115030    0.055464
     52          6           0       -5.184672   -0.775107   -1.208897
     53          6           0       -5.655538   -2.031981   -1.181582
     54          1           0       -6.029010   -2.517510   -2.088798
     55          6           0       -5.713674    0.785084    0.732839
     56          1           0       -6.609512    0.205387    1.016716
     57          1           0       -5.300557    1.262509    1.634077
     58          1           0       -6.060793    1.575732    0.045567
     59          6           0       -5.138246    0.058124   -2.467167
     60          1           0       -5.554169   -0.492119   -3.324573
     61          1           0       -5.704306    0.997054   -2.351151
     62          1           0       -4.098767    0.344282   -2.705488
 ---------------------------------------------------------------------

 SCF Done:  E(RPBE-PBE) =  -26395.3130556     A.U. after   11 cycles

      1  P    Isotropic =   220.1841   Anisotropy =    60.5063

      2  C    Isotropic =    44.5383   Anisotropy =   118.8508

      3  C    Isotropic =    38.3789   Anisotropy =   163.1645

      4  C    Isotropic =    34.2528   Anisotropy =   162.9959

      5  C    Isotropic =    52.6320   Anisotropy =   126.9754

      6  C    Isotropic =   162.9000   Anisotropy =    37.8603

      7  C    Isotropic =   164.0433   Anisotropy =    34.3355

      8  H    Isotropic =    23.8675   Anisotropy =     8.7964

      9  H    Isotropic =    25.0797   Anisotropy =     5.4802

     10  H    Isotropic =    30.0452   Anisotropy =     7.8465

     11  H    Isotropic =    29.4871   Anisotropy =     5.4215

     12  H    Isotropic =    29.3806   Anisotropy =     7.8535

     13  H    Isotropic =    29.9022   Anisotropy =     7.9821

     14  H    Isotropic =    29.3814   Anisotropy =     7.4393

     15  H    Isotropic =    29.5957   Anisotropy =     5.9641

     16  Pt   Isotropic =  3135.2489   Anisotropy =  1171.1331

     17  C    Isotropic =   128.4326   Anisotropy =    35.7520

     18  Sn   Isotropic =  2234.0250   Anisotropy =   674.5308

     19  Cl   Isotropic =   778.8614   Anisotropy =   326.7328

     20  Cl   Isotropic =   772.8872   Anisotropy =   306.4460

     21  Cl   Isotropic =   732.4931   Anisotropy =   325.0254

     22  C    Isotropic =   157.1082   Anisotropy =    50.6434

     23  H    Isotropic =    30.2386   Anisotropy =     7.0454

     24  H    Isotropic =    30.1501   Anisotropy =     6.3505

     25  P    Isotropic =  -269.2266   Anisotropy =   643.7517

     26  C    Isotropic =   149.4304   Anisotropy =    45.4632

     27  H    Isotropic =    29.6350   Anisotropy =     8.9330

     28  H    Isotropic =    29.4410   Anisotropy =     3.8111

     29  H    Isotropic =    29.9497   Anisotropy =    10.2052

     30  C    Isotropic =   148.4634   Anisotropy =    42.6618

     31  H    Isotropic =    29.3781   Anisotropy =     9.3983

     32  H    Isotropic =    30.1057   Anisotropy =     9.7531

     33  H    Isotropic =    29.8022   Anisotropy =     5.3623

     34  H    Isotropic =    30.6774   Anisotropy =    11.5667

     35  Cl   Isotropic =   883.9954   Anisotropy =   470.8218

     36  C    Isotropic =   -88.2060   Anisotropy =   358.8444

     37  C    Isotropic =   139.8551   Anisotropy =    36.2818

     38  H    Isotropic =    28.3605   Anisotropy =     4.5335

     39  H    Isotropic =    28.1877   Anisotropy =     4.4743

     40  H    Isotropic =    28.7076   Anisotropy =    10.7958

     41  C    Isotropic =    95.4134   Anisotropy =    68.1895

     42  H    Isotropic =    26.7109   Anisotropy =     5.3135

     43  H    Isotropic =    26.5293   Anisotropy =     6.8731

     44  H    Isotropic =    26.8233   Anisotropy =     6.0582

     45  C    Isotropic =   137.7565   Anisotropy =    39.4605

     46  H    Isotropic =    27.2164   Anisotropy =     7.8791

     47  H    Isotropic =    28.4732   Anisotropy =     3.6861

     48  H    Isotropic =    28.1424   Anisotropy =     9.7016

     49  C    Isotropic =    34.0946   Anisotropy =   134.9943

     50  H    Isotropic =    23.0915   Anisotropy =    10.7960

     51  C    Isotropic =     3.8283   Anisotropy =   151.5159

     52  C    Isotropic =    15.1640   Anisotropy =   158.7780

     53  C    Isotropic =    68.7932   Anisotropy =   126.7261

     54  H    Isotropic =    25.9974   Anisotropy =     5.3194

     55  C    Isotropic =   147.1867   Anisotropy =    52.6248

     56  H    Isotropic =    28.5679   Anisotropy =     9.5326

     57  H    Isotropic =    29.6513   Anisotropy =     3.1954

     58  H    Isotropic =    28.4835   Anisotropy =     6.8101

     59  C    Isotropic =   156.7137   Anisotropy =    39.8783

     60  H    Isotropic =    28.6425   Anisotropy =     9.1575

     61  H    Isotropic =    28.9027   Anisotropy =     7.3164

     62  H    Isotropic =    30.2577   Anisotropy =     5.2310

 The electronic state is 1-A.
 Alpha  occ. eigenvalues -- ********************-427.53811-414.86846-414.86811
 Alpha  occ. eigenvalues -- -414.86555-149.64879-141.92695-141.92687-141.92625
 Alpha  occ. eigenvalues -- -100.55016-100.54945-100.54543-100.53333 -99.91867
 Alpha  occ. eigenvalues --  -92.07721 -92.07601 -92.07255 -79.03590 -79.03475
 Alpha  occ. eigenvalues --  -79.03295 -79.03217 -79.03176 -76.30914 -76.29242
 Alpha  occ. eigenvalues --  -28.81230 -25.15869 -25.15840 -25.15643 -20.83344
 Alpha  occ. eigenvalues --  -17.70755 -17.70753 -17.70622 -17.70602 -17.70567
 Alpha  occ. eigenvalues --  -17.40174 -17.39955 -17.39217 -11.58540 -11.58132
 Alpha  occ. eigenvalues --  -11.57777 -11.57607 -11.57526  -9.98988  -9.93817
 Alpha  occ. eigenvalues --   -9.93098  -9.92639  -9.92581  -9.92451  -9.91371
 Alpha  occ. eigenvalues --   -9.91166  -9.91008  -9.90408  -9.90210  -9.89923
 Alpha  occ. eigenvalues --   -9.89747  -9.89659  -9.89547  -9.89455  -9.89164
 Alpha  occ. eigenvalues --   -9.89004  -9.88920  -9.88867  -9.12873  -9.12824
 Alpha  occ. eigenvalues --   -9.12511  -9.11126  -6.96635  -6.96600  -6.96241
 Alpha  occ. eigenvalues --   -6.96078  -6.96063  -6.96023  -6.96002  -6.95712
 Alpha  occ. eigenvalues --   -6.95708  -6.94837  -6.94385  -6.94333  -6.33900
 Alpha  occ. eigenvalues --   -6.31950  -4.56440  -4.56377  -4.56211  -4.54822
 Alpha  occ. eigenvalues --   -4.54344  -4.54040  -4.49883  -3.23322  -3.23279
 Alpha  occ. eigenvalues --   -3.22932  -3.13393  -3.13374  -3.12951  -3.12666
 Alpha  occ. eigenvalues --   -3.12565  -3.12419  -3.12395  -2.86360  -1.81446
 Alpha  occ. eigenvalues --   -1.81125  -1.78760  -1.02318  -1.02300  -1.01970
 Alpha  occ. eigenvalues --   -1.01960  -1.01840  -0.79067  -0.78777  -0.76800
 Alpha  occ. eigenvalues --   -0.75358  -0.71474  -0.70099  -0.70029  -0.69879
 Alpha  occ. eigenvalues --   -0.69508  -0.68593  -0.67438  -0.67269  -0.66076
 Alpha  occ. eigenvalues --   -0.63940  -0.63273  -0.62872  -0.62617  -0.61231
 Alpha  occ. eigenvalues --   -0.58518  -0.55809  -0.52797  -0.52404  -0.49993
 Alpha  occ. eigenvalues --   -0.48620  -0.46201  -0.45192  -0.44279  -0.43926
 Alpha  occ. eigenvalues --   -0.43718  -0.42449  -0.41853  -0.41292  -0.41087
 Alpha  occ. eigenvalues --   -0.40850  -0.40596  -0.40036  -0.39919  -0.39505
 Alpha  occ. eigenvalues --   -0.38584  -0.37603  -0.37067  -0.37027  -0.36462
 Alpha  occ. eigenvalues --   -0.36302  -0.36025  -0.35878  -0.35700  -0.35587
 Alpha  occ. eigenvalues --   -0.35359  -0.35311  -0.34643  -0.34172  -0.33408
 Alpha  occ. eigenvalues --   -0.33179  -0.33051  -0.32599  -0.31861  -0.31783
 Alpha  occ. eigenvalues --   -0.31709  -0.31482  -0.31104  -0.30703  -0.30369
 Alpha  occ. eigenvalues --   -0.30223  -0.29926  -0.28417  -0.27650  -0.27562
 Alpha  occ. eigenvalues --   -0.27010  -0.26938  -0.26585  -0.25789  -0.25600
 Alpha  occ. eigenvalues --   -0.25321  -0.25228  -0.24975  -0.23725  -0.23512
 Alpha  occ. eigenvalues --   -0.22930  -0.22185  -0.21866  -0.21213  -0.18808
 Alpha virt. eigenvalues --   -0.15015  -0.11296  -0.08600  -0.05098  -0.04822
 Alpha virt. eigenvalues --   -0.03984  -0.03232  -0.03005  -0.02305  -0.01976
 Alpha virt. eigenvalues --   -0.00852  -0.00715  -0.00586   0.00366   0.00610

 Mulliken charges:
               1
     1  P   -0.612568
     2  C    0.323267
     3  C   -0.434202
     4  C   -0.521820
     5  C    0.380085
     6  C   -0.132739
     7  C   -0.119386
     8  H    0.080383
     9  H    0.054274
    10  H    0.139670
    11  H    0.126489
    12  H    0.139004
    13  H    0.140625
    14  H    0.138603
    15  H    0.124676
    16  Pt   0.231034
    17  C   -0.749121
    18  Sn   0.344819
    19  Cl  -0.254116
    20  Cl  -0.302094
    21  Cl  -0.298663
    22  C   -0.052105
    23  H    0.098114
    24  H    0.098807
    25  P   -0.282699
    26  C    0.095796
    27  H    0.086120
    28  H    0.041635
    29  H    0.117952
    30  C    0.115401
    31  H    0.073534
    32  H    0.111565
    33  H    0.044845
    34  H    0.126377
    35  Cl  -0.464536
    36  C   -0.466682
    37  C   -0.077651
    38  H    0.116149
    39  H    0.124094
    40  H    0.171122
    41  C    0.078288
    42  H    0.125232
    43  H    0.109030
    44  H    0.122212
    45  C    0.099936
    46  H    0.092006
    47  H    0.067648
    48  H    0.155234
    49  C   -0.153504
    50  H    0.059258
    51  C    0.307856
    52  C   -0.115443
    53  C   -0.371265
    54  H    0.149991
    55  C   -0.182738
    56  H    0.142133
    57  H    0.117902
    58  H    0.132006
    59  C   -0.171117
    60  H    0.134690
    61  H    0.132840
    62  H    0.091752
 Sum of Mulliken charges =   0.00000

 Dipole moment (field-independent basis, Debye):
    X=            -22.2086    Y=              2.2829    Z=              8.3768  Tot=             23.8454
 Quadrupole moment (field-independent basis, Debye-Ang):
   XX=           -290.1851   YY=           -215.0310   ZZ=           -255.4884
   XY=              9.3918   XZ=              5.5761   YZ=            -22.5964

 Normal termination of Gaussian 09 at Fri Mar 20 22:24:59 2020.
