 Gaussian 09, Revision D.01,
 Gaussian 09:  EM64L-G09RevD.01 24-Apr-2013

 ----------------------------------------------------------------------
 #PBEPBE/gen scf=(maxcycle=1000,conver=4) NMR=GIAO Scrf=(solvent=Chloro
 form)
 ----------------------------------------------------------------------

 ------------
 estrutura 13
 ------------
 Symbolic Z-matrix:
 Charge =  0 Multiplicity = 1

                         Standard orientation:
 ---------------------------------------------------------------------
 Center     Atomic      Atomic             Coordinates (Angstroms)
 Number     Number       Type             X           Y           Z
 ---------------------------------------------------------------------
      1         78           0       -0.160806   -1.056853   -0.115510
      2         50           0       -2.508487   -2.299950   -0.045528
      3         17           0       -4.625669   -1.128711    0.166392
      4         17           0       -2.736939   -3.741684    1.885749
      5         17           0       -3.068917   -3.778591   -1.867906
      6         17           0        0.571626   -3.354281   -0.329208
      7         33           0       -1.168134    1.144196   -0.026116
      8         33           0        2.222055   -0.327188    0.026525
      9          6           0       -0.079606    2.747470   -0.319253
     10          6           0        0.536520    3.402842    0.756981
     11          6           0        0.063357    3.278528   -1.610625
     12          6           0        1.262662    4.577271    0.542543
     13          1           0        0.439764    3.014783    1.773269
     14          6           0        0.797116    4.448998   -1.815212
     15          1           0       -0.413419    2.794452   -2.465150
     16          6           0        1.404582    5.124750   -0.744000
     17          1           0        1.721928    5.080940    1.397729
     18          1           0        0.888344    4.850967   -2.828811
     19          6           0       -2.059509    1.558190    1.658259
     20          6           0       -2.548933    2.851045    1.915206
     21          6           0       -2.221209    0.567630    2.634958
     22          6           0       -3.204642    3.130506    3.113925
     23          1           0       -2.409433    3.654291    1.190361
     24          6           0       -2.871958    0.858732    3.837687
     25          1           0       -1.836497   -0.443594    2.472000
     26          6           0       -3.382410    2.137832    4.097228
     27          1           0       -3.584359    4.139568    3.291218
     28          1           0       -2.984044    0.068261    4.586105
     29          6           0       -2.499003    1.316045   -1.449693
     30          6           0       -3.615390    2.156149   -1.329192
     31          6           0       -2.311314    0.598477   -2.638711
     32          6           0       -4.515636    2.281907   -2.386947
     33          1           0       -3.806446    2.701680   -0.404466
     34          6           0       -3.218047    0.732791   -3.695139
     35          1           0       -1.465117   -0.087093   -2.742736
     36          6           0       -4.332681    1.579485   -3.591525
     37          1           0       -5.386237    2.934510   -2.270239
     38          1           0       -3.058210    0.157360   -4.611724
     39          6           0        2.518696    0.690907    1.666982
     40          6           0        3.425225    1.752669    1.803754
     41          6           0        1.812587    0.251359    2.796838
     42          6           0        3.633052    2.340536    3.052628
     43          1           0        3.967969    2.140288    0.941229
     44          6           0        2.031915    0.842573    4.044667
     45          1           0        1.086131   -0.561475    2.708148
     46          6           0        2.951796    1.890974    4.198432
     47          1           0        4.346137    3.165608    3.139375
     48          1           0        1.477946    0.476266    4.913356
     49          6           0        2.886237    0.622492   -1.543512
     50          6           0        4.171851    1.183712   -1.602542
     51          6           0        2.097023    0.613229   -2.703838
     52          6           0        4.638362    1.749022   -2.791800
     53          1           0        4.834826    1.163170   -0.734579
     54          6           0        2.579675    1.160805   -3.893628
     55          1           0        1.104684    0.157039   -2.683875
     56          6           0        3.856209    1.743881   -3.959378
     57          1           0        5.641353    2.188158   -2.815984
     58          1           0        1.952402    1.128883   -4.789525
     59          6           0        3.566628   -1.743689    0.177892
     60          6           0        3.982148   -2.418707   -0.979655
     61          6           0        4.127491   -2.098169    1.411866
     62          6           0        4.956529   -3.414787   -0.901088
     63          1           0        3.552507   -2.169925   -1.952684
     64          6           0        5.101887   -3.097803    1.479251
     65          1           0        3.817592   -1.595645    2.329994
     66          6           0        5.540342   -3.769050    0.326877
     67          1           0        5.268603   -3.928881   -1.814626
     68          1           0        5.531876   -3.356813    2.451068
     69          6           0       -4.111361    2.451001    5.379195
     70          1           0       -3.779936    3.411696    5.806328
     71          1           0       -5.197475    2.537023    5.198535
     72          1           0       -3.960719    1.664745    6.133373
     73          6           0       -5.306052    1.743671   -4.731307
     74          1           0       -6.349015    1.684973   -4.378136
     75          1           0       -5.184182    2.730533   -5.212463
     76          1           0       -5.159952    0.973778   -5.503843
     77          6           0        2.192267    6.391281   -0.971406
     78          1           0        1.810615    6.952943   -1.837575
     79          1           0        2.160499    7.049991   -0.090585
     80          1           0        3.254193    6.164460   -1.172155
     81          6           0        3.204551    2.522933    5.544152
     82          1           0        2.679118    1.987045    6.348010
     83          1           0        4.280455    2.528502    5.782817
     84          1           0        2.866908    3.572803    5.561427
     85          6           0        6.623459   -4.815791    0.402639
     86          1           0        6.552398   -5.532863   -0.428893
     87          1           0        7.623440   -4.349741    0.349100
     88          1           0        6.577932   -5.376324    1.349106
     89          6           0        4.381017    2.308913   -5.255823
     90          1           0        5.296191    2.898709   -5.101490
     91          1           0        4.622187    1.499554   -5.966401
     92          1           0        3.632532    2.952000   -5.745523
 ---------------------------------------------------------------------

 SCF Done:  E(RPBE-PBE) =  -31017.3864124     A.U. after   11 cycles

      1  Pt   Isotropic =  3188.3287   Anisotropy =  1623.8736

      2  Sn   Isotropic =  2166.7863   Anisotropy =   638.0477

      3  Cl   Isotropic =   750.8913   Anisotropy =   299.7204

      4  Cl   Isotropic =   761.3104   Anisotropy =   327.3068

      5  Cl   Isotropic =   778.3120   Anisotropy =   323.7865

      6  Cl   Isotropic =   953.1935   Anisotropy =   717.5163

      7  As   Isotropic =   967.3011   Anisotropy =   277.9842

      8  As   Isotropic =   991.1336   Anisotropy =   225.0192

      9  C    Isotropic =    41.4605   Anisotropy =   152.8292

     10  C    Isotropic =    48.8009   Anisotropy =   182.9049

     11  C    Isotropic =    44.2588   Anisotropy =   187.4807

     12  C    Isotropic =    43.0624   Anisotropy =   158.6635

     13  H    Isotropic =    26.4028   Anisotropy =     7.7654

     14  C    Isotropic =    41.5976   Anisotropy =   154.6209

     15  H    Isotropic =    25.1947   Anisotropy =    11.5168

     16  C    Isotropic =     2.2594   Anisotropy =   153.8100

     17  H    Isotropic =    23.7493   Anisotropy =     9.6411

     18  H    Isotropic =    23.5511   Anisotropy =     9.5346

     19  C    Isotropic =    60.9394   Anisotropy =   182.3195

     20  C    Isotropic =    46.4910   Anisotropy =   175.4227

     21  C    Isotropic =    52.1301   Anisotropy =   191.6914

     22  C    Isotropic =    41.5177   Anisotropy =   136.7303

     23  H    Isotropic =    24.2704   Anisotropy =    13.6300

     24  C    Isotropic =    52.4634   Anisotropy =   152.0702

     25  H    Isotropic =    22.6506   Anisotropy =    14.9204

     26  C    Isotropic =    20.0184   Anisotropy =   129.0762

     27  H    Isotropic =    24.3176   Anisotropy =     7.1627

     28  H    Isotropic =    24.2423   Anisotropy =     9.9240

     29  C    Isotropic =    24.6369   Anisotropy =   135.8275

     30  C    Isotropic =    42.8944   Anisotropy =   168.4823

     31  C    Isotropic =    38.3788   Anisotropy =   154.6222

     32  C    Isotropic =    47.4468   Anisotropy =   177.2462

     33  H    Isotropic =    23.8905   Anisotropy =    12.9629

     34  C    Isotropic =    54.8768   Anisotropy =   172.7813

     35  H    Isotropic =    23.4993   Anisotropy =    13.8520

     36  C    Isotropic =    36.1877   Anisotropy =   223.8342

     37  H    Isotropic =    22.6422   Anisotropy =     9.7393

     38  H    Isotropic =    23.9152   Anisotropy =     9.1427

     39  C    Isotropic =    63.8084   Anisotropy =   156.5096

     40  C    Isotropic =    56.0580   Anisotropy =   185.8570

     41  C    Isotropic =    53.0129   Anisotropy =   177.8415

     42  C    Isotropic =    35.6710   Anisotropy =   143.4421

     43  H    Isotropic =    24.1873   Anisotropy =     9.1610

     44  C    Isotropic =    45.9774   Anisotropy =   152.7739

     45  H    Isotropic =    23.0739   Anisotropy =    13.4748

     46  C    Isotropic =    -4.7431   Anisotropy =   127.7421

     47  H    Isotropic =    21.8985   Anisotropy =     9.3825

     48  H    Isotropic =    23.2411   Anisotropy =    10.0252

     49  C    Isotropic =    73.7945   Anisotropy =   181.0270

     50  C    Isotropic =    54.2432   Anisotropy =   174.1384

     51  C    Isotropic =    59.3158   Anisotropy =   191.1839

     52  C    Isotropic =    35.1695   Anisotropy =   110.6324

     53  H    Isotropic =    24.4610   Anisotropy =    11.8047

     54  C    Isotropic =    46.1984   Anisotropy =   148.8208

     55  H    Isotropic =    22.4848   Anisotropy =    15.1704

     56  C    Isotropic =     0.7684   Anisotropy =   118.7205

     57  H    Isotropic =    23.4923   Anisotropy =     7.7074

     58  H    Isotropic =    23.2985   Anisotropy =    11.3871

     59  C    Isotropic =    62.3332   Anisotropy =   176.1080

     60  C    Isotropic =    60.4476   Anisotropy =   211.2689

     61  C    Isotropic =    67.1264   Anisotropy =   215.4597

     62  C    Isotropic =    43.2364   Anisotropy =   130.0221

     63  H    Isotropic =    24.5592   Anisotropy =    14.3566

     64  C    Isotropic =    41.0502   Anisotropy =   128.7996

     65  H    Isotropic =    24.6595   Anisotropy =    15.7016

     66  C    Isotropic =     5.4350   Anisotropy =   114.1737

     67  H    Isotropic =    23.6661   Anisotropy =     9.9706

     68  H    Isotropic =    23.4815   Anisotropy =    10.3731

     69  C    Isotropic =   160.6332   Anisotropy =    43.5315

     70  H    Isotropic =    28.9672   Anisotropy =     8.9419

     71  H    Isotropic =    28.7720   Anisotropy =    10.0513

     72  H    Isotropic =    29.1190   Anisotropy =     7.3328

     73  C    Isotropic =   163.9219   Anisotropy =    36.3076

     74  H    Isotropic =    28.4516   Anisotropy =     9.2860

     75  H    Isotropic =    28.5460   Anisotropy =    10.3665

     76  H    Isotropic =    28.6441   Anisotropy =     8.2007

     77  C    Isotropic =   178.1264   Anisotropy =    41.9870

     78  H    Isotropic =    28.0222   Anisotropy =    11.6682

     79  H    Isotropic =    27.9059   Anisotropy =    11.9111

     80  H    Isotropic =    28.5816   Anisotropy =     9.5233

     81  C    Isotropic =   180.6156   Anisotropy =    52.7641

     82  H    Isotropic =    27.9785   Anisotropy =     9.4770

     83  H    Isotropic =    27.3746   Anisotropy =    12.6193

     84  H    Isotropic =    28.1879   Anisotropy =    10.4672

     85  C    Isotropic =   175.2314   Anisotropy =    31.0131

     86  H    Isotropic =    28.4723   Anisotropy =     9.7222

     87  H    Isotropic =    28.3625   Anisotropy =    11.4922

     88  H    Isotropic =    28.4162   Anisotropy =    10.0336

     89  C    Isotropic =   172.2886   Anisotropy =    26.6020

     90  H    Isotropic =    28.3764   Anisotropy =    10.5544

     91  H    Isotropic =    28.3198   Anisotropy =    10.8618

     92  H    Isotropic =    28.4744   Anisotropy =     9.0332

 The electronic state is 1-A.
 Alpha  occ. eigenvalues -- ********************-427.54501-422.29980-422.29247
 Alpha  occ. eigenvalues -- -414.87534-414.87525-414.87241-149.65620-141.93434
 Alpha  occ. eigenvalues -- -141.93427-141.93367-100.55451-100.55272-100.54920
 Alpha  occ. eigenvalues -- -100.53073 -99.92544 -92.08368 -92.08331 -92.07914
 Alpha  occ. eigenvalues --  -79.04282 -79.04164 -79.03945 -79.03913 -79.03849
 Alpha  occ. eigenvalues --  -53.01653 -53.00964 -47.60923 -47.60912 -47.60839
 Alpha  occ. eigenvalues --  -47.60229 -47.60227 -47.60141 -28.81990 -25.16626
 Alpha  occ. eigenvalues --  -25.16601 -25.16406 -20.84005 -17.71509 -17.71508
 Alpha  occ. eigenvalues --  -17.71377 -17.71361 -17.71325 -17.40776 -17.40716
 Alpha  occ. eigenvalues --  -17.39839 -11.59236 -11.58809 -11.58377 -11.58295
 Alpha  occ. eigenvalues --  -11.58173  -9.92714  -9.92598  -9.92577  -9.92347
 Alpha  occ. eigenvalues --   -9.92146  -9.91977  -9.91964  -9.91926  -9.91846
 Alpha  occ. eigenvalues --   -9.91689  -9.91556  -9.91464  -9.91358  -9.91295
 Alpha  occ. eigenvalues --   -9.91279  -9.91248  -9.91226  -9.91090  -9.91046
 Alpha  occ. eigenvalues --   -9.91022  -9.90911  -9.90727  -9.90617  -9.90574
 Alpha  occ. eigenvalues --   -9.90571  -9.90561  -9.90482  -9.90463  -9.90456
 Alpha  occ. eigenvalues --   -9.90405  -9.90357  -9.90336  -9.90292  -9.90077
 Alpha  occ. eigenvalues --   -9.89756  -9.89749  -9.89294  -9.89229  -9.89227
 Alpha  occ. eigenvalues --   -9.89107  -9.88881  -9.88703  -9.13302  -9.13129
 Alpha  occ. eigenvalues --   -9.12782  -9.10885  -6.97124  -6.96938  -6.96583
 Alpha  occ. eigenvalues --   -6.96483  -6.96456  -6.96319  -6.96286  -6.95967
 Alpha  occ. eigenvalues --   -6.95952  -6.94687  -6.94094  -6.94041  -6.73868
 Alpha  occ. eigenvalues --   -6.73172  -4.86702  -4.86679  -4.86478  -4.86017
 Alpha  occ. eigenvalues --   -4.86001  -4.85754  -4.50709  -3.24138  -3.24113
 Alpha  occ. eigenvalues --   -3.23784  -3.14079  -3.14077  -3.13604  -3.13306
 Alpha  occ. eigenvalues --   -3.13165  -3.13101  -3.13052  -2.87019  -1.81999
 Alpha  occ. eigenvalues --   -1.81930  -1.79377  -1.54549  -1.54535  -1.54364
 Alpha  occ. eigenvalues --   -1.54346  -1.54311  -1.53883  -1.53874  -1.53662
 Alpha  occ. eigenvalues --   -1.53654  -1.53591  -1.03197  -1.03183  -1.02813
 Alpha  occ. eigenvalues --   -1.02809  -1.02738  -0.80022  -0.79896  -0.79615
 Alpha  occ. eigenvalues --   -0.79391  -0.79222  -0.78885  -0.72767  -0.72615
 Alpha  occ. eigenvalues --   -0.71928  -0.71322  -0.71096  -0.70938  -0.70654
 Alpha  occ. eigenvalues --   -0.70390  -0.70039  -0.69160  -0.68977  -0.68947
 Alpha  occ. eigenvalues --   -0.68730  -0.68606  -0.68321  -0.68159  -0.65185
 Alpha  occ. eigenvalues --   -0.65020  -0.62758  -0.62530  -0.62384  -0.62136
 Alpha  occ. eigenvalues --   -0.57896  -0.57645  -0.56441  -0.56296  -0.55957
 Alpha  occ. eigenvalues --   -0.55849  -0.55647  -0.55358  -0.53601  -0.53491
 Alpha  occ. eigenvalues --   -0.53306  -0.53218  -0.52039  -0.51828  -0.46359
 Alpha  occ. eigenvalues --   -0.46151  -0.46081  -0.45790  -0.44016  -0.43853
 Alpha  occ. eigenvalues --   -0.43129  -0.43021  -0.42769  -0.42720  -0.42486
 Alpha  occ. eigenvalues --   -0.42243  -0.42015  -0.41132  -0.41078  -0.40944
 Alpha  occ. eigenvalues --   -0.40735  -0.40486  -0.40117  -0.38933  -0.38640
 Alpha  occ. eigenvalues --   -0.38563  -0.38445  -0.38283  -0.38252  -0.38162
 Alpha  occ. eigenvalues --   -0.38122  -0.37991  -0.37871  -0.37766  -0.37647
 Alpha  occ. eigenvalues --   -0.36756  -0.36245  -0.36180  -0.36020  -0.35917
 Alpha  occ. eigenvalues --   -0.35328  -0.34690  -0.34645  -0.34604  -0.34459
 Alpha  occ. eigenvalues --   -0.34315  -0.34092  -0.33577  -0.33396  -0.33275
 Alpha  occ. eigenvalues --   -0.33212  -0.33107  -0.32606  -0.32517  -0.32447
 Alpha  occ. eigenvalues --   -0.32279  -0.31783  -0.31188  -0.30931  -0.30877
 Alpha  occ. eigenvalues --   -0.30849  -0.30771  -0.30498  -0.30261  -0.29920
 Alpha  occ. eigenvalues --   -0.29680  -0.29486  -0.29079  -0.28245  -0.27857
 Alpha  occ. eigenvalues --   -0.27199  -0.27105  -0.26879  -0.26576  -0.26004
 Alpha  occ. eigenvalues --   -0.25791  -0.25342  -0.25150  -0.24897  -0.24565
 Alpha  occ. eigenvalues --   -0.24357  -0.24069  -0.23973  -0.23754  -0.23703
 Alpha  occ. eigenvalues --   -0.23545  -0.23343  -0.23063  -0.22804  -0.22563
 Alpha  occ. eigenvalues --   -0.22474  -0.21781  -0.21023
 Alpha virt. eigenvalues --   -0.11923  -0.07492  -0.07319  -0.06743  -0.06501
 Alpha virt. eigenvalues --   -0.06338  -0.06262  -0.06074  -0.05914  -0.05532
 Alpha virt. eigenvalues --   -0.05259  -0.05205  -0.04699  -0.04402  -0.02839

 Mulliken charges:
               1
     1  Pt  -0.241662
     2  Sn   0.384624
     3  Cl  -0.213540
     4  Cl  -0.207097
     5  Cl  -0.204908
     6  Cl  -0.409457
     7  As   0.864424
     8  As   0.694435
     9  C   -0.070479
    10  C    0.090048
    11  C    0.020440
    12  C   -0.220647
    13  H    0.059258
    14  C   -0.361626
    15  H    0.066116
    16  C    0.036320
    17  H    0.078098
    18  H    0.088142
    19  C   -0.038223
    20  C    0.129103
    21  C    0.290258
    22  C   -0.169136
    23  H    0.076166
    24  C   -0.602544
    25  H    0.069846
    26  C   -0.199928
    27  H    0.106672
    28  H    0.095403
    29  C   -0.053994
    30  C   -0.020512
    31  C    0.267792
    32  C   -0.147636
    33  H    0.066712
    34  C   -0.425776
    35  H    0.080082
    36  C   -0.213767
    37  H    0.107877
    38  H    0.103546
    39  C   -0.123280
    40  C    0.013277
    41  C    0.345152
    42  C   -0.207033
    43  H    0.046936
    44  C   -0.447355
    45  H    0.062186
    46  C   -0.091270
    47  H    0.094615
    48  H    0.098530
    49  C   -0.035147
    50  C    0.161830
    51  C    0.222540
    52  C   -0.355234
    53  H    0.080852
    54  C   -0.409612
    55  H    0.061516
    56  C   -0.166429
    57  H    0.106864
    58  H    0.090508
    59  C   -0.011974
    60  C    0.098345
    61  C    0.057302
    62  C   -0.222488
    63  H    0.100186
    64  C   -0.292285
    65  H    0.091559
    66  C   -0.168091
    67  H    0.109555
    68  H    0.105715
    69  C   -0.340955
    70  H    0.150964
    71  H    0.153695
    72  H    0.142047
    73  C   -0.328300
    74  H    0.148320
    75  H    0.153694
    76  H    0.140208
    77  C   -0.352411
    78  H    0.145510
    79  H    0.145590
    80  H    0.147533
    81  C   -0.326756
    82  H    0.139096
    83  H    0.150614
    84  H    0.149563
    85  C   -0.365661
    86  H    0.146316
    87  H    0.155817
    88  H    0.148215
    89  C   -0.337178
    90  H    0.139809
    91  H    0.153758
    92  H    0.148812
 Sum of Mulliken charges =   0.00000

 Dipole moment (field-independent basis, Debye):
    X=             11.7372    Y=             18.8829    Z=              0.3856  Tot=             22.2368
 Quadrupole moment (field-independent basis, Debye-Ang):
   XX=           -368.4838   YY=           -399.1071   ZZ=           -331.3988
   XY=            -31.7999   XZ=             -0.6267   YZ=              0.2614

 Normal termination of Gaussian 09 at Thu Sep  6 11:04:22 2018.
