 Gaussian 09, Revision D.01,
 Gaussian 09:  EM64L-G09RevD.01 24-Apr-2013

 ----------------------------------------------------------------------
 #PBEPBE/gen scf=(maxcycle=500,conver=3) NMR=GIAO Scrf=(solvent=Dichlor
 omethane)
 ----------------------------------------------------------------------

 ------------
 estrutura 83
 ------------
 Symbolic Z-matrix:
 Charge =  0 Multiplicity = 1

                         Standard orientation:
 ---------------------------------------------------------------------
 Center     Atomic      Atomic             Coordinates (Angstroms)
 Number     Number       Type             X           Y           Z
 ---------------------------------------------------------------------
      1         78           0        0.241031    0.360606   -0.092089
      2          6           0       -0.085090    2.409471   -0.225840
      3          6           0       -0.090281    3.293021    0.872695
      4          6           0       -0.253534    2.990819   -1.500359
      5          6           0       -0.222023    4.677954    0.710556
      6          1           0        0.006103    2.904129    1.888575
      7          6           0       -0.390459    4.374148   -1.671824
      8          1           0       -0.273265    2.353866   -2.389192
      9          6           0       -0.370052    5.229737   -0.565609
     10          1           0       -0.215543    5.327131    1.591659
     11          1           0       -0.513476    4.783773   -2.679214
     12          1           0       -0.475502    6.310352   -0.696188
     13         15           0        2.686874    0.957210    0.105693
     14         15           0        0.449673   -2.077190   -0.188755
     15          6           0        3.091700    1.440841    1.847497
     16          6           0        4.401480    1.808718    2.211627
     17          6           0        2.103914    1.391392    2.843254
     18          6           0        4.704735    2.141518    3.533363
     19          1           0        5.194918    1.827731    1.461533
     20          6           0        2.409755    1.719697    4.169108
     21          1           0        1.090384    1.082555    2.580603
     22          6           0        3.708172    2.100262    4.515701
     23          1           0        5.725352    2.428583    3.798451
     24          1           0        1.628141    1.674232    4.931492
     25          1           0        3.947638    2.357475    5.550532
     26          6           0        3.102758    2.428991   -0.938054
     27          6           0        2.903946    2.327631   -2.327830
     28          6           0        3.577131    3.642547   -0.416881
     29          6           0        3.216569    3.391065   -3.176829
     30          1           0        2.490401    1.413088   -2.758937
     31          6           0        3.871115    4.715376   -1.266526
     32          1           0        3.713554    3.766544    0.657766
     33          6           0        3.704162    4.590558   -2.647649
     34          1           0        3.064072    3.286024   -4.253848
     35          1           0        4.234452    5.653801   -0.839988
     36          1           0        3.941267    5.427607   -3.309044
     37          6           0        4.117127   -0.190533   -0.238922
     38          6           0        4.359906   -1.237782    0.669330
     39          6           0        4.963814   -0.063035   -1.353339
     40          6           0        5.415917   -2.129426    0.468037
     41          1           0        3.729365   -1.356853    1.551772
     42          6           0        6.018635   -0.960043   -1.555055
     43          1           0        4.819754    0.745771   -2.069651
     44          6           0        6.249205   -1.996380   -0.647179
     45          1           0        5.585788   -2.932205    1.189664
     46          1           0        6.666712   -0.837995   -2.426737
     47          1           0        7.076090   -2.693446   -0.803858
     48          6           0       -1.063090   -3.157403   -0.287473
     49          6           0       -1.428209   -4.052333    0.729693
     50          6           0       -1.841919   -3.109047   -1.457077
     51          6           0       -2.539710   -4.888727    0.574250
     52          1           0       -0.845100   -4.110911    1.649338
     53          6           0       -2.951329   -3.943037   -1.609937
     54          1           0       -1.576566   -2.426329   -2.266281
     55          6           0       -3.301744   -4.840097   -0.595138
     56          1           0       -2.807136   -5.581770    1.375918
     57          1           0       -3.541392   -3.892116   -2.528524
     58          1           0       -4.167411   -5.496460   -0.715917
     59          6           0        1.329841   -2.811158    1.266890
     60          6           0        2.191404   -3.918191    1.193549
     61          6           0        1.083750   -2.229043    2.522944
     62          6           0        2.789942   -4.429346    2.349565
     63          1           0        2.414424   -4.384520    0.233562
     64          6           0        1.678570   -2.743183    3.679196
     65          1           0        0.422208   -1.363162    2.594709
     66          6           0        2.535691   -3.845245    3.594783
     67          1           0        3.461725   -5.288367    2.273507
     68          1           0        1.475780   -2.276415    4.646317
     69          1           0        3.006327   -4.245925    4.496126
     70          6           0        1.330532   -2.685298   -1.704826
     71          6           0        1.349897   -4.049662   -2.055799
     72          6           0        1.938389   -1.763572   -2.569590
     73          6           0        1.991614   -4.475814   -3.220730
     74          1           0        0.843970   -4.786643   -1.429031
     75          6           0        2.572790   -2.187828   -3.742611
     76          1           0        1.898466   -0.702106   -2.323805
     77          6           0        2.607007   -3.545775   -4.067038
     78          1           0        2.001227   -5.538827   -3.474470
     79          1           0        3.037581   -1.452193   -4.403723
     80          1           0        3.102168   -3.880418   -4.982190
     81         50           0       -2.421936    0.416462    0.054048
     82          6           0       -3.365145    0.176101   -1.923473
     83          6           0       -4.763205    0.184487   -2.087336
     84          6           0       -2.573711    0.059801   -3.080668
     85          6           0       -5.348242    0.060823   -3.354696
     86          1           0       -5.419530    0.297702   -1.219021
     87          6           0       -3.150067   -0.057909   -4.352272
     88          1           0       -1.482267    0.060846   -2.991786
     89          6           0       -4.542107   -0.062390   -4.491547
     90          1           0       -6.437708    0.065088   -3.454172
     91          1           0       -2.510897   -0.145647   -5.235855
     92          1           0       -4.996726   -0.156223   -5.481720
     93          6           0       -3.338469   -1.000520    1.478067
     94          6           0       -4.518566   -1.705600    1.183775
     95          6           0       -2.811818   -1.125176    2.777112
     96          6           0       -5.152707   -2.498672    2.148789
     97          1           0       -4.958785   -1.647866    0.184409
     98          6           0       -3.437537   -1.918671    3.747342
     99          1           0       -1.894501   -0.593670    3.051496
    100          6           0       -4.614476   -2.607211    3.435229
    101          1           0       -6.070526   -3.036374    1.892717
    102          1           0       -3.006285   -1.996610    4.749825
    103          1           0       -5.108601   -3.225321    4.189936
    104          6           0       -3.452761    2.234457    0.772375
    105          6           0       -3.630588    2.473557    2.147365
    106          6           0       -4.006859    3.163471   -0.126608
    107          6           0       -4.325057    3.598601    2.609017
    108          1           0       -3.232237    1.768742    2.883959
    109          6           0       -4.704507    4.290760    0.326312
    110          1           0       -3.897495    3.013085   -1.204597
    111          6           0       -4.865225    4.512729    1.697618
    112          1           0       -4.448755    3.759349    3.684225
    113          1           0       -5.125306    4.996845   -0.396029
    114          1           0       -5.410581    5.390828    2.054255
 ---------------------------------------------------------------------

 SCF Done:  E(RPBE-PBE) =  -26088.4777612     A.U. after   23 cycles

      1  Pt   Isotropic =  3071.2730   Anisotropy =  1912.8409

      2  C    Isotropic =     6.3799   Anisotropy =   202.0659

      3  C    Isotropic =    36.0985   Anisotropy =   171.0240

      4  C    Isotropic =    36.3977   Anisotropy =   177.8812

      5  C    Isotropic =    50.4729   Anisotropy =   173.6388

      6  H    Isotropic =    23.7998   Anisotropy =    10.5549

      7  C    Isotropic =    51.5384   Anisotropy =   180.3025

      8  H    Isotropic =    23.6840   Anisotropy =    13.1153

      9  C    Isotropic =    55.3842   Anisotropy =   186.4554

     10  H    Isotropic =    25.0745   Anisotropy =     4.6944

     11  H    Isotropic =    24.7822   Anisotropy =     4.5982

     12  H    Isotropic =    25.1844   Anisotropy =     1.9747

     13  P    Isotropic =   280.1030   Anisotropy =    41.6747

     14  P    Isotropic =   261.9757   Anisotropy =    86.8131

     15  C    Isotropic =    43.7001   Anisotropy =   177.4139

     16  C    Isotropic =    42.0774   Anisotropy =   192.2450

     17  C    Isotropic =    37.1549   Anisotropy =   178.2234

     18  C    Isotropic =    51.1926   Anisotropy =   183.9483

     19  H    Isotropic =    24.4404   Anisotropy =    12.8937

     20  C    Isotropic =    53.3242   Anisotropy =   182.6952

     21  H    Isotropic =    21.6676   Anisotropy =    15.4263

     22  C    Isotropic =    48.3961   Anisotropy =   184.3475

     23  H    Isotropic =    24.0328   Anisotropy =     5.9064

     24  H    Isotropic =    23.2542   Anisotropy =     8.9035

     25  H    Isotropic =    23.7681   Anisotropy =     4.0828

     26  C    Isotropic =    43.8516   Anisotropy =   186.0909

     27  C    Isotropic =    46.1796   Anisotropy =   185.3059

     28  C    Isotropic =    46.8538   Anisotropy =   189.8337

     29  C    Isotropic =    50.6230   Anisotropy =   181.4223

     30  H    Isotropic =    22.8519   Anisotropy =    12.0723

     31  C    Isotropic =    49.2736   Anisotropy =   180.6482

     32  H    Isotropic =    24.8646   Anisotropy =    11.8013

     33  C    Isotropic =    49.7379   Anisotropy =   185.9987

     34  H    Isotropic =    23.4112   Anisotropy =     7.1429

     35  H    Isotropic =    24.3621   Anisotropy =     6.3429

     36  H    Isotropic =    23.9488   Anisotropy =     3.0101

     37  C    Isotropic =    35.4070   Anisotropy =   165.9779

     38  C    Isotropic =    45.7241   Anisotropy =   176.5052

     39  C    Isotropic =    46.7644   Anisotropy =   177.0896

     40  C    Isotropic =    47.1632   Anisotropy =   172.4178

     41  H    Isotropic =    26.5431   Anisotropy =     6.9414

     42  C    Isotropic =    53.5251   Anisotropy =   169.5970

     43  H    Isotropic =    23.8308   Anisotropy =    12.6172

     44  C    Isotropic =    53.0647   Anisotropy =   173.9414

     45  H    Isotropic =    25.0016   Anisotropy =     8.2642

     46  H    Isotropic =    24.4216   Anisotropy =     6.0368

     47  H    Isotropic =    24.4015   Anisotropy =     3.5419

     48  C    Isotropic =    31.2495   Anisotropy =   181.5735

     49  C    Isotropic =    49.9802   Anisotropy =   189.9065

     50  C    Isotropic =    42.7997   Anisotropy =   188.0926

     51  C    Isotropic =    50.9212   Anisotropy =   178.2643

     52  H    Isotropic =    25.4004   Anisotropy =    11.7988

     53  C    Isotropic =    47.8024   Anisotropy =   178.3305

     54  H    Isotropic =    24.4336   Anisotropy =     8.3547

     55  C    Isotropic =    46.2047   Anisotropy =   169.4073

     56  H    Isotropic =    25.0190   Anisotropy =     5.3441

     57  H    Isotropic =    25.0101   Anisotropy =     7.5557

     58  H    Isotropic =    24.6530   Anisotropy =     3.0807

     59  C    Isotropic =    45.6248   Anisotropy =   191.5153

     60  C    Isotropic =    47.4072   Anisotropy =   195.5712

     61  C    Isotropic =    44.7705   Anisotropy =   184.9664

     62  C    Isotropic =    48.7336   Anisotropy =   185.3912

     63  H    Isotropic =    23.6560   Anisotropy =    11.1479

     64  C    Isotropic =    49.9686   Anisotropy =   181.9880

     65  H    Isotropic =    22.3475   Anisotropy =    12.6787

     66  C    Isotropic =    44.1710   Anisotropy =   183.8611

     67  H    Isotropic =    23.7014   Anisotropy =     5.1143

     68  H    Isotropic =    23.5102   Anisotropy =     7.8839

     69  H    Isotropic =    23.7031   Anisotropy =     4.0821

     70  C    Isotropic =    39.2512   Anisotropy =   190.3716

     71  C    Isotropic =    43.2368   Anisotropy =   191.5111

     72  C    Isotropic =    36.9679   Anisotropy =   183.7398

     73  C    Isotropic =    50.7792   Anisotropy =   186.5784

     74  H    Isotropic =    24.2794   Anisotropy =    12.7889

     75  C    Isotropic =    48.5244   Anisotropy =   181.0846

     76  H    Isotropic =    22.4191   Anisotropy =    13.3823

     77  C    Isotropic =    43.9289   Anisotropy =   187.8477

     78  H    Isotropic =    24.0570   Anisotropy =     5.9080

     79  H    Isotropic =    23.6098   Anisotropy =     8.4840

     80  H    Isotropic =    23.8358   Anisotropy =     4.0078

     81  Sn   Isotropic =  2272.5185   Anisotropy =   505.8144

     82  C    Isotropic =    28.0077   Anisotropy =   210.0619

     83  C    Isotropic =    38.2419   Anisotropy =   179.1113

     84  C    Isotropic =    36.8502   Anisotropy =   168.9374

     85  C    Isotropic =    52.1696   Anisotropy =   179.4084

     86  H    Isotropic =    23.7635   Anisotropy =    13.1284

     87  C    Isotropic =    50.8549   Anisotropy =   175.8645

     88  H    Isotropic =    22.7268   Anisotropy =    14.2393

     89  C    Isotropic =    53.4928   Anisotropy =   190.6212

     90  H    Isotropic =    23.8859   Anisotropy =     5.4972

     91  H    Isotropic =    23.6342   Anisotropy =     8.9385

     92  H    Isotropic =    23.8438   Anisotropy =     4.2305

     93  C    Isotropic =    28.5095   Anisotropy =   235.1468

     94  C    Isotropic =    46.8751   Anisotropy =   186.8827

     95  C    Isotropic =    45.3550   Anisotropy =   174.7818

     96  C    Isotropic =    52.9384   Anisotropy =   180.3265

     97  H    Isotropic =    24.3084   Anisotropy =    10.9924

     98  C    Isotropic =    53.2130   Anisotropy =   176.0696

     99  H    Isotropic =    22.5816   Anisotropy =    12.6495

    100  C    Isotropic =    51.0014   Anisotropy =   173.5195

    101  H    Isotropic =    24.6399   Anisotropy =     5.5366

    102  H    Isotropic =    23.9055   Anisotropy =     6.9501

    103  H    Isotropic =    24.4151   Anisotropy =     2.8490

    104  C    Isotropic =    24.3224   Anisotropy =   230.5850

    105  C    Isotropic =    43.6740   Anisotropy =   184.0363

    106  C    Isotropic =    41.6746   Anisotropy =   184.5309

    107  C    Isotropic =    53.6545   Anisotropy =   176.8331

    108  H    Isotropic =    23.6208   Anisotropy =    13.4656

    109  C    Isotropic =    52.0645   Anisotropy =   173.9391

    110  H    Isotropic =    24.9222   Anisotropy =    12.1763

    111  C    Isotropic =    50.9246   Anisotropy =   166.6770

    112  H    Isotropic =    24.4784   Anisotropy =     6.8813

    113  H    Isotropic =    24.8900   Anisotropy =     6.5319

    114  H    Isotropic =    24.7901   Anisotropy =     2.2437

 The electronic state is 1-A.
 Alpha  occ. eigenvalues -- ********************-427.51339-414.84398-414.84317
 Alpha  occ. eigenvalues -- -414.84122-149.58346-141.86123-141.86109-141.86089
 Alpha  occ. eigenvalues --  -99.89379 -92.05221 -92.05068 -92.04833 -79.01068
 Alpha  occ. eigenvalues --  -79.00959 -79.00828 -79.00753 -79.00727 -76.30185
 Alpha  occ. eigenvalues --  -76.30177 -28.74776 -25.09380 -25.09335 -25.09276
 Alpha  occ. eigenvalues --  -20.80850 -17.64244 -17.64235 -17.64198 -17.64170
 Alpha  occ. eigenvalues --  -17.64159 -17.37664 -17.37359 -17.36850 -11.55957
 Alpha  occ. eigenvalues --  -11.55581 -11.55303 -11.55167 -11.55113  -9.92042
 Alpha  occ. eigenvalues --   -9.92010  -9.91990  -9.91836  -9.91780  -9.91353
 Alpha  occ. eigenvalues --   -9.90870  -9.90867  -9.90844  -9.90824  -9.90818
 Alpha  occ. eigenvalues --   -9.90767  -9.90660  -9.90641  -9.90632  -9.90623
 Alpha  occ. eigenvalues --   -9.90580  -9.90546  -9.90502  -9.90495  -9.90492
 Alpha  occ. eigenvalues --   -9.90475  -9.90364  -9.90274  -9.90272  -9.90213
 Alpha  occ. eigenvalues --   -9.90154  -9.90116  -9.90113  -9.90084  -9.90044
 Alpha  occ. eigenvalues --   -9.89996  -9.89995  -9.89809  -9.89786  -9.89748
 Alpha  occ. eigenvalues --   -9.89292  -9.89200  -9.89177  -9.89101  -9.89081
 Alpha  occ. eigenvalues --   -9.89010  -9.88973  -9.88911  -9.88891  -9.88691
 Alpha  occ. eigenvalues --   -9.88676  -9.88628  -9.88604  -9.88603  -9.88569
 Alpha  occ. eigenvalues --   -9.88411  -9.88369  -9.88307  -9.88223  -9.88149
 Alpha  occ. eigenvalues --   -9.88024  -9.87886  -9.87801  -9.87650  -6.33093
 Alpha  occ. eigenvalues --   -6.33084  -4.55681  -4.55666  -4.55656  -4.55651
 Alpha  occ. eigenvalues --   -4.55265  -4.55259  -4.43580  -3.16979  -3.16904
 Alpha  occ. eigenvalues --   -3.16799  -3.10825  -3.10767  -3.10452  -3.10176
 Alpha  occ. eigenvalues --   -3.10105  -3.10000  -3.09981  -2.83817  -1.78873
 Alpha  occ. eigenvalues --   -1.78281  -1.76508  -0.96128  -0.96051  -0.95922
 Alpha  occ. eigenvalues --   -0.95844  -0.95775  -0.79640  -0.79507  -0.78957
 Alpha  occ. eigenvalues --   -0.78757  -0.78495  -0.78298  -0.77106  -0.76825
 Alpha  occ. eigenvalues --   -0.76450  -0.75990  -0.71359  -0.71250  -0.68882
 Alpha  occ. eigenvalues --   -0.68833  -0.68723  -0.68684  -0.68530  -0.68318
 Alpha  occ. eigenvalues --   -0.68033  -0.67969  -0.67896  -0.67830  -0.67030
 Alpha  occ. eigenvalues --   -0.66770  -0.66660  -0.66413  -0.66131  -0.65897
 Alpha  occ. eigenvalues --   -0.65749  -0.65476  -0.60292  -0.60165  -0.56019
 Alpha  occ. eigenvalues --   -0.55847  -0.55587  -0.55523  -0.55240  -0.55001
 Alpha  occ. eigenvalues --   -0.54552  -0.54445  -0.54400  -0.54334  -0.53796
 Alpha  occ. eigenvalues --   -0.53424  -0.53206  -0.53053  -0.52652  -0.52585
 Alpha  occ. eigenvalues --   -0.52228  -0.52047  -0.51560  -0.51383  -0.47633
 Alpha  occ. eigenvalues --   -0.47354  -0.47270  -0.47217  -0.46577  -0.45505
 Alpha  occ. eigenvalues --   -0.45446  -0.45431  -0.45092  -0.44798  -0.41997
 Alpha  occ. eigenvalues --   -0.41826  -0.41708  -0.41592  -0.41340  -0.41155
 Alpha  occ. eigenvalues --   -0.40881  -0.40806  -0.40605  -0.40435  -0.40135
 Alpha  occ. eigenvalues --   -0.40051  -0.39929  -0.39467  -0.39158  -0.39142
 Alpha  occ. eigenvalues --   -0.38842  -0.38777  -0.38734  -0.38622  -0.38543
 Alpha  occ. eigenvalues --   -0.38323  -0.38223  -0.38022  -0.37937  -0.37840
 Alpha  occ. eigenvalues --   -0.37685  -0.37580  -0.37366  -0.36997  -0.36760
 Alpha  occ. eigenvalues --   -0.36712  -0.36385  -0.36075  -0.35593  -0.35355
 Alpha  occ. eigenvalues --   -0.34971  -0.34382  -0.34277  -0.34062  -0.33931
 Alpha  occ. eigenvalues --   -0.33700  -0.33653  -0.33412  -0.33246  -0.32991
 Alpha  occ. eigenvalues --   -0.32623  -0.32520  -0.31923  -0.31603  -0.31499
 Alpha  occ. eigenvalues --   -0.31383  -0.31159  -0.30932  -0.30904  -0.30658
 Alpha  occ. eigenvalues --   -0.30541  -0.30218  -0.29957  -0.29617  -0.29551
 Alpha  occ. eigenvalues --   -0.29410  -0.29343  -0.29185  -0.29025  -0.28659
 Alpha  occ. eigenvalues --   -0.28397  -0.26861  -0.25686  -0.25106  -0.24761
 Alpha  occ. eigenvalues --   -0.24675  -0.24591  -0.24439  -0.24401  -0.24231
 Alpha  occ. eigenvalues --   -0.23909  -0.23834  -0.23601  -0.23547  -0.23314
 Alpha  occ. eigenvalues --   -0.23092  -0.22994  -0.22805  -0.22726  -0.22434
 Alpha  occ. eigenvalues --   -0.22310  -0.22115  -0.21919  -0.21283  -0.21239
 Alpha  occ. eigenvalues --   -0.20970  -0.20377  -0.19315  -0.17711
 Alpha virt. eigenvalues --   -0.07438  -0.07171  -0.06778  -0.06478  -0.06237
 Alpha virt. eigenvalues --   -0.06012  -0.05668  -0.05572  -0.05389  -0.05177
 Alpha virt. eigenvalues --   -0.04821  -0.04684  -0.04386  -0.04331  -0.04167

 Mulliken charges:
               1
     1  Pt   0.347922
     2  C    0.215115
     3  C   -0.152856
     4  C   -0.001137
     5  C    0.036158
     6  H    0.021194
     7  C    0.066543
     8  H    0.014466
     9  C   -0.639402
    10  H    0.112556
    11  H    0.101017
    12  H    0.122467
    13  P    1.282954
    14  P    0.920738
    15  C   -1.419498
    16  C    0.573642
    17  C    0.575749
    18  C    0.071417
    19  H    0.087272
    20  C   -0.238081
    21  H    0.050167
    22  C   -0.697658
    23  H    0.138199
    24  H    0.129035
    25  H    0.150041
    26  C   -1.023275
    27  C    0.770037
    28  C    0.127709
    29  C    0.050076
    30  H    0.034956
    31  C   -0.196945
    32  H    0.086217
    33  C   -0.499634
    34  H    0.121065
    35  H    0.129072
    36  H    0.143893
    37  C   -1.183056
    38  C    0.576255
    39  C    0.276519
    40  C   -0.066546
    41  H    0.043430
    42  C   -0.179642
    43  H    0.076494
    44  C   -0.455933
    45  H    0.124106
    46  H    0.134823
    47  H    0.145897
    48  C   -1.172461
    49  C    0.417523
    50  C    0.631355
    51  C   -0.170676
    52  H    0.082808
    53  C   -0.044943
    54  H    0.060597
    55  C   -0.487628
    56  H    0.111594
    57  H    0.117304
    58  H    0.125333
    59  C   -0.831544
    60  C    0.165034
    61  C    0.684121
    62  C   -0.146366
    63  H    0.048338
    64  C    0.027256
    65  H    0.022725
    66  C   -0.608216
    67  H    0.128937
    68  H    0.133940
    69  H    0.143497
    70  C   -1.053524
    71  C    0.556039
    72  C    0.294958
    73  C    0.068786
    74  H    0.083524
    75  C   -0.253663
    76  H    0.067455
    77  C   -0.633665
    78  H    0.140372
    79  H    0.125251
    80  H    0.145500
    81  Sn   0.389977
    82  C   -0.166842
    83  C    0.151284
    84  C    0.204975
    85  C   -0.155003
    86  H    0.105030
    87  C   -0.125477
    88  H    0.073091
    89  C   -0.687765
    90  H    0.143284
    91  H    0.139113
    92  H    0.148636
    93  C   -0.046012
    94  C    0.005651
    95  C    0.298193
    96  C   -0.178538
    97  H    0.085963
    98  C   -0.093117
    99  H    0.054488
   100  C   -0.609381
   101  H    0.124606
   102  H    0.130431
   103  H    0.140234
   104  C   -0.038502
   105  C    0.038850
   106  C    0.021896
   107  C   -0.176502
   108  H    0.094338
   109  C   -0.077300
   110  H    0.098391
   111  C   -0.607511
   112  H    0.143783
   113  H    0.139468
   114  H    0.147168
 Sum of Mulliken charges =   0.00000

 Dipole moment (field-independent basis, Debye):
    X=              9.4471    Y=             -5.5359    Z=              0.0429  Tot=             10.9497
 Quadrupole moment (field-independent basis, Debye-Ang):
   XX=           -417.8942   YY=           -409.9276   ZZ=           -384.8699
   XY=              7.8202   XZ=              4.6283   YZ=             -1.7535

 Normal termination of Gaussian 09 at Thu Nov 14 03:45:04 2019.
