 Gaussian 09, Revision D.01,
 Gaussian 09:  EM64L-G09RevD.01 24-Apr-2013

 ----------------------------------------------------------------------
 #PBEPBE/gen scf=(maxcycle=500,conver=4) NMR=GIAO Scrf=(solvent=Dichlor
 omethane)
 ----------------------------------------------------------------------

 ------------
 estrutura 69
 ------------
 Symbolic Z-matrix:
 Charge =  0 Multiplicity = 1

                         Standard orientation:
 ---------------------------------------------------------------------
 Center     Atomic      Atomic             Coordinates (Angstroms)
 Number     Number       Type             X           Y           Z
 ---------------------------------------------------------------------
      1         78           0        0.130782   -0.890446   -0.176466
      2         15           0       -2.247827   -1.127776   -0.106615
      3         15           0        2.503337   -0.782580    0.086461
      4          6           0       -2.848534   -0.728403    1.604918
      5          1           0       -2.486663    0.290014    1.815618
      6          1           0       -2.290775   -1.400126    2.279224
      7          6           0       -4.353581   -0.814630    1.872198
      8          1           0       -4.767307   -1.811412    1.656897
      9          1           0       -4.551403   -0.601219    2.933876
     10          1           0       -4.916189   -0.076560    1.282802
     11          6           0       -3.124041    0.040615   -1.268450
     12          1           0       -2.439212    0.189037   -2.118351
     13          6           0       -2.963295   -2.802627   -0.461678
     14          1           0       -4.056936   -2.684120   -0.499872
     15          1           0       -2.651140   -3.078369   -1.481811
     16          6           0       -2.588887   -3.895491    0.543816
     17          1           0       -2.999562   -4.863089    0.214906
     18          1           0       -1.500245   -4.010211    0.644825
     19          1           0       -3.000254   -3.688059    1.543421
     20          6           0        3.382696    0.444499   -0.988400
     21          1           0        4.461005    0.365375   -0.770111
     22          1           0        3.069439    1.441806   -0.635737
     23          6           0        3.108504    0.284985   -2.488199
     24          1           0        3.417059   -0.705138   -2.864945
     25          1           0        2.038935    0.419807   -2.715624
     26          1           0        3.668761    1.043510   -3.057804
     27          6           0        3.408216   -2.383273   -0.172276
     28          1           0        2.913954   -3.119049    0.482001
     29          1           0        3.193747   -2.708437   -1.201830
     30          6           0        4.918931   -2.371091    0.076550
     31          1           0        5.325868   -3.382263   -0.075698
     32          1           0        5.448945   -1.700718   -0.615249
     33          1           0        5.173019   -2.068943    1.102939
     34          6           0        2.953687   -0.263349    1.806420
     35          1           0        4.053935   -0.225873    1.868123
     36          1           0        2.600458    0.774990    1.913989
     37          6           0        2.369277   -1.153701    2.906973
     38          1           0        2.634786   -0.755843    3.899341
     39          1           0        1.270297   -1.196226    2.841970
     40          1           0        2.750070   -2.186740    2.853111
     41          6           0        0.350557   -2.807704   -1.014748
     42          1           0        0.715488   -3.528005   -0.266155
     43          1           0       -0.589457   -3.179995   -1.436241
     44          1           0        1.086588   -2.736364   -1.829272
     45         50           0       -0.092426    1.807606    0.137525
     46         17           0       -0.226894    2.813035   -2.099316
     47         17           0       -2.016755    2.970650    1.159628
     48         17           0        1.669375    3.267975    1.064179
     49          6           0       -4.517627   -0.335199   -1.780597
     50          1           0       -4.904081    0.479856   -2.414951
     51          1           0       -4.497095   -1.247681   -2.396832
     52          1           0       -5.241742   -0.490283   -0.966286
     53          1           0       -3.155376    1.004150   -0.731411
 ---------------------------------------------------------------------

 SCF Done:  E(RPBE-PBE) =  -25668.5573136     A.U. after    9 cycles

      1  Pt   Isotropic =  3219.3562   Anisotropy =   808.5531

      2  P    Isotropic =   278.8507   Anisotropy =    54.4455

      3  P    Isotropic =   276.1610   Anisotropy =    53.2938

      4  C    Isotropic =   154.6585   Anisotropy =    38.3567

      5  H    Isotropic =    28.6148   Anisotropy =    10.5567

      6  H    Isotropic =    29.3168   Anisotropy =     5.8289

      7  C    Isotropic =   172.9296   Anisotropy =    21.6542

      8  H    Isotropic =    30.2751   Anisotropy =     9.1100

      9  H    Isotropic =    30.1464   Anisotropy =    12.9983

     10  H    Isotropic =    30.1183   Anisotropy =     8.0732

     11  C    Isotropic =   152.9153   Anisotropy =    30.9151

     12  H    Isotropic =    29.0431   Anisotropy =     7.5357

     13  C    Isotropic =   168.8058   Anisotropy =    29.2716

     14  H    Isotropic =    29.1618   Anisotropy =     8.5774

     15  H    Isotropic =    29.4859   Anisotropy =     7.7704

     16  C    Isotropic =   175.6506   Anisotropy =    18.0369

     17  H    Isotropic =    30.1917   Anisotropy =    13.5536

     18  H    Isotropic =    30.4245   Anisotropy =     6.9677

     19  H    Isotropic =    30.6065   Anisotropy =     9.0196

     20  C    Isotropic =   157.5530   Anisotropy =    21.5265

     21  H    Isotropic =    29.3404   Anisotropy =     9.5727

     22  H    Isotropic =    28.9728   Anisotropy =     9.1286

     23  C    Isotropic =   171.9679   Anisotropy =    18.1877

     24  H    Isotropic =    30.5349   Anisotropy =     9.4841

     25  H    Isotropic =    30.1949   Anisotropy =     6.1771

     26  H    Isotropic =    30.1829   Anisotropy =    12.9710

     27  C    Isotropic =   167.1807   Anisotropy =    29.2699

     28  H    Isotropic =    29.6378   Anisotropy =     5.8989

     29  H    Isotropic =    29.2432   Anisotropy =     5.4275

     30  C    Isotropic =   177.3102   Anisotropy =    17.7467

     31  H    Isotropic =    30.2499   Anisotropy =    13.3179

     32  H    Isotropic =    30.5263   Anisotropy =     9.7905

     33  H    Isotropic =    30.4916   Anisotropy =     9.3996

     34  C    Isotropic =   159.4675   Anisotropy =    21.5554

     35  H    Isotropic =    29.5911   Anisotropy =     9.1770

     36  H    Isotropic =    28.8359   Anisotropy =    10.4454

     37  C    Isotropic =   173.0713   Anisotropy =    18.7856

     38  H    Isotropic =    30.2386   Anisotropy =    13.1155

     39  H    Isotropic =    30.3092   Anisotropy =     7.1673

     40  H    Isotropic =    30.6043   Anisotropy =     9.4589

     41  C    Isotropic =   161.9246   Anisotropy =    35.5703

     42  H    Isotropic =    30.4066   Anisotropy =    13.2742

     43  H    Isotropic =    30.5654   Anisotropy =    12.4991

     44  H    Isotropic =    30.3813   Anisotropy =    14.0756

     45  Sn   Isotropic =  2163.8140   Anisotropy =   812.3491

     46  Cl   Isotropic =   763.2759   Anisotropy =   316.0538

     47  Cl   Isotropic =   747.3939   Anisotropy =   306.4099

     48  Cl   Isotropic =   745.9452   Anisotropy =   311.2746

     49  C    Isotropic =   170.4456   Anisotropy =    22.5110

     50  H    Isotropic =    30.0387   Anisotropy =    12.4631

     51  H    Isotropic =    30.2347   Anisotropy =     9.3015

     52  H    Isotropic =    30.1806   Anisotropy =     8.4051

     53  H    Isotropic =    28.6712   Anisotropy =     8.7192

 The electronic state is 1-A.
 Alpha  occ. eigenvalues -- ********************-427.53177-414.86196-414.86186
 Alpha  occ. eigenvalues -- -414.85914-149.64999-141.92814-141.92810-141.92743
 Alpha  occ. eigenvalues -- -100.55177-100.55145-100.55107 -99.91222 -92.07036
 Alpha  occ. eigenvalues --  -92.06986 -92.06618 -79.02945 -79.02828 -79.02627
 Alpha  occ. eigenvalues --  -79.02604 -79.02547 -76.29676 -76.29571 -28.81346
 Alpha  occ. eigenvalues --  -25.15977 -25.15968 -25.15756 -20.82691 -17.70873
 Alpha  occ. eigenvalues --  -17.70873 -17.70729 -17.70725 -17.70683 -17.39447
 Alpha  occ. eigenvalues --  -17.39362 -17.38577 -11.57884 -11.57464 -11.57055
 Alpha  occ. eigenvalues --  -11.57017 -11.56902  -9.90859  -9.90759  -9.90747
 Alpha  occ. eigenvalues --   -9.90666  -9.90664  -9.90659  -9.89102  -9.89101
 Alpha  occ. eigenvalues --   -9.89084  -9.88975  -9.88962  -9.88916  -9.87736
 Alpha  occ. eigenvalues --   -9.13056  -9.13020  -9.12975  -6.96803  -6.96766
 Alpha  occ. eigenvalues --   -6.96728  -6.96265  -6.96252  -6.96231  -6.96218
 Alpha  occ. eigenvalues --   -6.96183  -6.96169  -6.32704  -6.32629  -4.55240
 Alpha  occ. eigenvalues --   -4.55230  -4.55163  -4.55143  -4.54952  -4.54883
 Alpha  occ. eigenvalues --   -4.50002  -3.23440  -3.23414  -3.23034  -3.12731
 Alpha  occ. eigenvalues --   -3.12713  -3.12278  -3.11992  -3.11858  -3.11831
 Alpha  occ. eigenvalues --   -3.11775  -2.85619  -1.80591  -1.80400  -1.78034
 Alpha  occ. eigenvalues --   -1.02452  -1.02446  -1.02086  -1.02081  -1.01959
 Alpha  occ. eigenvalues --   -0.73514  -0.73416  -0.71731  -0.70263  -0.70199
 Alpha  occ. eigenvalues --   -0.69492  -0.69423  -0.69213  -0.69190  -0.61346
 Alpha  occ. eigenvalues --   -0.61070  -0.60414  -0.57182  -0.57014  -0.56369
 Alpha  occ. eigenvalues --   -0.55524  -0.49093  -0.48337  -0.43074  -0.42662
 Alpha  occ. eigenvalues --   -0.42478  -0.42377  -0.41285  -0.40606  -0.40352
 Alpha  occ. eigenvalues --   -0.38693  -0.38276  -0.38101  -0.37734  -0.37410
 Alpha  occ. eigenvalues --   -0.36949  -0.36641  -0.35526  -0.35210  -0.34978
 Alpha  occ. eigenvalues --   -0.34612  -0.34097  -0.33615  -0.33323  -0.33133
 Alpha  occ. eigenvalues --   -0.32687  -0.32617  -0.32152  -0.31858  -0.31755
 Alpha  occ. eigenvalues --   -0.31433  -0.31377  -0.30890  -0.30403  -0.29230
 Alpha  occ. eigenvalues --   -0.28988  -0.28636  -0.28282  -0.28061  -0.27225
 Alpha  occ. eigenvalues --   -0.27127  -0.26108  -0.25967  -0.25632  -0.25479
 Alpha  occ. eigenvalues --   -0.25199  -0.24719  -0.22347  -0.21635  -0.19953
 Alpha virt. eigenvalues --   -0.08251  -0.06013  -0.04478  -0.03145  -0.02312
 Alpha virt. eigenvalues --   -0.01793  -0.01509  -0.00787  -0.00268  -0.00048
 Alpha virt. eigenvalues --    0.00205   0.00633   0.01298   0.01747   0.01878

 Mulliken charges:
               1
     1  Pt   0.472892
     2  P    0.080967
     3  P    0.275648
     4  C   -0.318588
     5  H    0.088674
     6  H    0.096429
     7  C   -0.198014
     8  H    0.110346
     9  H    0.138349
    10  H    0.113467
    11  C   -0.331179
    12  H    0.104153
    13  C   -0.401102
    14  H    0.122388
    15  H    0.102130
    16  C   -0.164797
    17  H    0.135468
    18  H    0.096226
    19  H    0.108232
    20  C   -0.427746
    21  H    0.109691
    22  H    0.086462
    23  C   -0.127699
    24  H    0.108435
    25  H    0.080752
    26  H    0.133600
    27  C   -0.500783
    28  H    0.100513
    29  H    0.103472
    30  C   -0.212013
    31  H    0.140702
    32  H    0.118155
    33  H    0.115469
    34  C   -0.396414
    35  H    0.112524
    36  H    0.087177
    37  C   -0.154727
    38  H    0.136919
    39  H    0.080886
    40  H    0.108999
    41  C   -0.538282
    42  H    0.116039
    43  H    0.102815
    44  H    0.115164
    45  Sn   0.364186
    46  Cl  -0.309957
    47  Cl  -0.288756
    48  Cl  -0.261079
    49  C   -0.192356
    50  H    0.135939
    51  H    0.121154
    52  H    0.110666
    53  H    0.088406
 Sum of Mulliken charges =   0.00000

 Dipole moment (field-independent basis, Debye):
    X=              0.9520    Y=            -14.1299    Z=              0.6572  Tot=             14.1772
 Quadrupole moment (field-independent basis, Debye-Ang):
   XX=           -176.0916   YY=           -237.7859   ZZ=           -210.3512
   XY=              3.0323   XZ=              1.2351   YZ=             -2.8388

 Normal termination of Gaussian 09 at Sun Nov  3 12:40:26 2019.
