 Gaussian 09, Revision D.01,
 Gaussian 09:  EM64L-G09RevD.01 24-Apr-2013

 ----------------------------------------------------------------------
 #PBEPBE/gen scf=(maxcycle=500,conver=4) NMR=GIAO Scrf=(solvent=Dichlor
 omethane)
 ----------------------------------------------------------------------

 ------------
 estrutura 75
 ------------
 Symbolic Z-matrix:
 Charge =  0 Multiplicity = 1

                         Standard orientation:
 ---------------------------------------------------------------------
 Center     Atomic      Atomic             Coordinates (Angstroms)
 Number     Number       Type             X           Y           Z
 ---------------------------------------------------------------------
      1         78           0       -0.490848   -0.004029   -0.065283
      2         15           0       -0.182583    2.385000   -0.125972
      3         15           0       -0.893397   -2.363261    0.043617
      4          6           0        0.051573    2.983417    1.612452
      5          1           0        0.812181    2.313501    2.043402
      6          1           0       -0.893756    2.750019    2.129698
      7          6           0        0.453904    4.444880    1.827524
      8          1           0       -0.247633    5.150938    1.358419
      9          1           0        0.475610    4.668210    2.906058
     10          1           0        1.460012    4.650446    1.432670
     11          6           0        1.356950    2.870225   -1.063036
     12          1           0        1.461404    2.142359   -1.881849
     13          6           0       -1.528864    3.431829   -0.871546
     14          1           0       -1.044750    4.355577   -1.220922
     15          1           0       -1.867889    2.895610   -1.772085
     16          6           0       -2.721811    3.792320    0.018007
     17          1           0       -3.430259    4.408928   -0.558749
     18          1           0       -3.262151    2.906668    0.375453
     19          1           0       -2.415244    4.383986    0.893786
     20          6           0       -0.015439   -3.331907   -1.268098
     21          1           0       -0.265521   -4.395908   -1.123473
     22          1           0        1.061880   -3.238213   -1.053736
     23          6           0       -0.332211   -2.879289   -2.695898
     24          1           0       -1.388419   -3.042293   -2.957351
     25          1           0       -0.111474   -1.809083   -2.831984
     26          1           0        0.282096   -3.442784   -3.418464
     27          6           0       -2.674379   -2.863880   -0.102185
     28          1           0       -3.188689   -2.389210    0.747502
     29          1           0       -3.066692   -2.357874   -0.997677
     30          6           0       -2.969768   -4.364674   -0.151150
     31          1           0       -4.059697   -4.525593   -0.174528
     32          1           0       -2.551720   -4.842471   -1.049873
     33          1           0       -2.582603   -4.898962    0.730420
     34          6           0       -0.308759   -3.129402    1.626350
     35          1           0       -0.632267   -4.183212    1.624164
     36          1           0        0.791326   -3.137774    1.573389
     37          6           0       -0.778997   -2.412144    2.894171
     38          1           0       -0.414561   -2.945288    3.787081
     39          1           0       -0.389148   -1.382179    2.933996
     40          1           0       -1.877987   -2.361679    2.964293
     41         50           0        2.223084   -0.394926    0.029550
     42         17           0        3.572804    0.005614   -1.979730
     43         17           0        3.459348    1.013343    1.628447
     44         17           0        3.284093   -2.528795    0.647240
     45          6           0        1.489053    4.289742   -1.624134
     46          1           0        2.492721    4.408492   -2.062353
     47          1           0        0.760983    4.487120   -2.425214
     48          1           0        1.370959    5.067276   -0.855654
     49          1           0        2.182473    2.660627   -0.362883
     50          6           0       -2.521245    0.302434   -0.061968
     51          6           0       -3.235115    0.365262    1.148262
     52          6           0       -3.242072    0.424563   -1.262615
     53          6           0       -4.625530    0.540774    1.157885
     54          1           0       -2.706923    0.274877    2.101761
     55          6           0       -4.632240    0.603603   -1.254347
     56          1           0       -2.721244    0.375720   -2.223365
     57          6           0       -5.330911    0.661047   -0.044035
     58          1           0       -5.157192    0.585975    2.112783
     59          1           0       -5.169938    0.696476   -2.202465
     60          1           0       -6.415261    0.798616   -0.037436
 ---------------------------------------------------------------------

 SCF Done:  E(RPBE-PBE) =  -25860.0984262     A.U. after   11 cycles

      1  Pt   Isotropic =  3012.7522   Anisotropy =  1102.3782

      2  P    Isotropic =   293.5791   Anisotropy =    29.1366

      3  P    Isotropic =   273.0923   Anisotropy =    54.1385

      4  C    Isotropic =   157.3204   Anisotropy =    33.6182

      5  H    Isotropic =    28.7998   Anisotropy =     7.5446

      6  H    Isotropic =    29.3195   Anisotropy =     5.6004

      7  C    Isotropic =   172.3041   Anisotropy =    20.3091

      8  H    Isotropic =    30.4904   Anisotropy =     8.7558

      9  H    Isotropic =    30.1082   Anisotropy =    13.2358

     10  H    Isotropic =    30.1310   Anisotropy =     7.7749

     11  C    Isotropic =   147.9005   Anisotropy =    30.9370

     12  H    Isotropic =    28.7250   Anisotropy =     8.4672

     13  C    Isotropic =   164.4890   Anisotropy =    21.6151

     14  H    Isotropic =    29.1551   Anisotropy =     9.3696

     15  H    Isotropic =    29.8632   Anisotropy =     5.9563

     16  C    Isotropic =   174.8341   Anisotropy =    19.3958

     17  H    Isotropic =    30.9327   Anisotropy =    12.5144

     18  H    Isotropic =    32.4101   Anisotropy =    14.6051

     19  H    Isotropic =    31.1241   Anisotropy =     8.7688

     20  C    Isotropic =   156.7481   Anisotropy =    20.3721

     21  H    Isotropic =    29.4112   Anisotropy =     9.2959

     22  H    Isotropic =    29.2062   Anisotropy =     9.4506

     23  C    Isotropic =   172.1169   Anisotropy =    19.8543

     24  H    Isotropic =    30.5905   Anisotropy =     9.4667

     25  H    Isotropic =    30.2824   Anisotropy =     5.8958

     26  H    Isotropic =    30.0852   Anisotropy =    13.0372

     27  C    Isotropic =   165.2633   Anisotropy =    26.9059

     28  H    Isotropic =    30.4390   Anisotropy =     9.0541

     29  H    Isotropic =    30.3265   Anisotropy =     8.7351

     30  C    Isotropic =   177.6526   Anisotropy =    18.2349

     31  H    Isotropic =    30.6102   Anisotropy =    12.8437

     32  H    Isotropic =    30.7488   Anisotropy =    10.0151

     33  H    Isotropic =    30.7124   Anisotropy =     9.8760

     34  C    Isotropic =   158.2763   Anisotropy =    22.1989

     35  H    Isotropic =    29.3795   Anisotropy =     9.9569

     36  H    Isotropic =    28.7453   Anisotropy =    10.4604

     37  C    Isotropic =   171.1003   Anisotropy =    18.7392

     38  H    Isotropic =    30.1185   Anisotropy =    13.3326

     39  H    Isotropic =    30.2587   Anisotropy =     5.7738

     40  H    Isotropic =    30.4517   Anisotropy =     8.7674

     41  Sn   Isotropic =  2156.1501   Anisotropy =   826.6269

     42  Cl   Isotropic =   753.8665   Anisotropy =   322.3425

     43  Cl   Isotropic =   751.5886   Anisotropy =   310.6941

     44  Cl   Isotropic =   751.7334   Anisotropy =   295.5031

     45  C    Isotropic =   170.7444   Anisotropy =    21.2761

     46  H    Isotropic =    30.0043   Anisotropy =    12.0021

     47  H    Isotropic =    30.1922   Anisotropy =     9.3573

     48  H    Isotropic =    30.3532   Anisotropy =     8.4204

     49  H    Isotropic =    28.5208   Anisotropy =     9.2372

     50  C    Isotropic =     4.0771   Anisotropy =   184.0852

     51  C    Isotropic =    45.3944   Anisotropy =   161.1857

     52  C    Isotropic =    48.2066   Anisotropy =   158.3958

     53  C    Isotropic =    55.9679   Anisotropy =   171.7824

     54  H    Isotropic =    23.7161   Anisotropy =    13.4473

     55  C    Isotropic =    51.4158   Anisotropy =   179.4902

     56  H    Isotropic =    23.6692   Anisotropy =    13.6534

     57  C    Isotropic =    49.3321   Anisotropy =   156.2876

     58  H    Isotropic =    24.0225   Anisotropy =     5.6385

     59  H    Isotropic =    23.6456   Anisotropy =     5.8582

     60  H    Isotropic =    24.1935   Anisotropy =     2.3465

 The electronic state is 1-A.
 Alpha  occ. eigenvalues -- ********************-427.53636-414.86684-414.86645
 Alpha  occ. eigenvalues -- -414.86371-149.64910-141.92721-141.92717-141.92646
 Alpha  occ. eigenvalues -- -100.55359-100.55295-100.55246 -99.91667 -92.07526
 Alpha  occ. eigenvalues --  -92.07400 -92.07054 -79.03405 -79.03285 -79.03092
 Alpha  occ. eigenvalues --  -79.03028 -79.02984 -76.29763 -76.29553 -28.81301
 Alpha  occ. eigenvalues --  -25.15934 -25.15926 -25.15700 -20.83135 -17.70826
 Alpha  occ. eigenvalues --  -17.70826 -17.70674 -17.70670 -17.70625 -17.39978
 Alpha  occ. eigenvalues --  -17.39743 -17.39003 -11.58352 -11.57929 -11.57530
 Alpha  occ. eigenvalues --  -11.57412 -11.57327  -9.90707  -9.90633  -9.90614
 Alpha  occ. eigenvalues --   -9.90521  -9.90464  -9.90398  -9.90264  -9.89593
 Alpha  occ. eigenvalues --   -9.89591  -9.89249  -9.89218  -9.89209  -9.89038
 Alpha  occ. eigenvalues --   -9.88990  -9.88957  -9.88950  -9.88931  -9.88509
 Alpha  occ. eigenvalues --   -9.13219  -9.13147  -9.13101  -6.96973  -6.96896
 Alpha  occ. eigenvalues --   -6.96860  -6.96426  -6.96415  -6.96362  -6.96344
 Alpha  occ. eigenvalues --   -6.96310  -6.96293  -6.32767  -6.32603  -4.55302
 Alpha  occ. eigenvalues --   -4.55295  -4.55130  -4.55118  -4.55019  -4.54865
 Alpha  occ. eigenvalues --   -4.50013  -3.23462  -3.23435  -3.23032  -3.13213
 Alpha  occ. eigenvalues --   -3.13178  -3.12737  -3.12435  -3.12321  -3.12233
 Alpha  occ. eigenvalues --   -3.12197  -2.86099  -1.81103  -1.80940  -1.78431
 Alpha  occ. eigenvalues --   -1.02492  -1.02486  -1.02121  -1.02083  -1.01985
 Alpha  occ. eigenvalues --   -0.77550  -0.73402  -0.73280  -0.71887  -0.70367
 Alpha  occ. eigenvalues --   -0.70322  -0.69524  -0.69288  -0.69064  -0.69038
 Alpha  occ. eigenvalues --   -0.67393  -0.66932  -0.61279  -0.60985  -0.57145
 Alpha  occ. eigenvalues --   -0.56705  -0.56469  -0.55526  -0.54142  -0.53354
 Alpha  occ. eigenvalues --   -0.48989  -0.48212  -0.46197  -0.43032  -0.42468
 Alpha  occ. eigenvalues --   -0.42249  -0.41927  -0.41470  -0.40843  -0.40358
 Alpha  occ. eigenvalues --   -0.39997  -0.39881  -0.38458  -0.38232  -0.37827
 Alpha  occ. eigenvalues --   -0.37620  -0.37205  -0.37027  -0.36673  -0.36489
 Alpha  occ. eigenvalues --   -0.35865  -0.35198  -0.34802  -0.34587  -0.33841
 Alpha  occ. eigenvalues --   -0.33371  -0.33179  -0.32868  -0.32531  -0.32099
 Alpha  occ. eigenvalues --   -0.32057  -0.31847  -0.31741  -0.31427  -0.31028
 Alpha  occ. eigenvalues --   -0.30901  -0.30204  -0.29995  -0.29905  -0.28940
 Alpha  occ. eigenvalues --   -0.28615  -0.28243  -0.27965  -0.27359  -0.27173
 Alpha  occ. eigenvalues --   -0.27092  -0.26112  -0.25716  -0.25644  -0.25387
 Alpha  occ. eigenvalues --   -0.25136  -0.23524  -0.22978  -0.22311  -0.20990
 Alpha  occ. eigenvalues --   -0.19854
 Alpha virt. eigenvalues --   -0.07968  -0.06310  -0.04653  -0.04601  -0.03873
 Alpha virt. eigenvalues --   -0.02857  -0.02201  -0.01633  -0.01396  -0.00587
 Alpha virt. eigenvalues --   -0.00281  -0.00150   0.00118   0.00741   0.01417

 Mulliken charges:
               1
     1  Pt   0.310956
     2  P    0.055188
     3  P    0.227205
     4  C   -0.373493
     5  H    0.088536
     6  H    0.094832
     7  C   -0.177914
     8  H    0.108591
     9  H    0.136792
    10  H    0.113328
    11  C   -0.319087
    12  H    0.095573
    13  C   -0.283987
    14  H    0.107855
    15  H    0.083725
    16  C   -0.106019
    17  H    0.119218
    18  H    0.053207
    19  H    0.092007
    20  C   -0.402924
    21  H    0.111497
    22  H    0.081712
    23  C   -0.118438
    24  H    0.107077
    25  H    0.072932
    26  H    0.134036
    27  C   -0.409377
    28  H    0.080288
    29  H    0.082880
    30  C   -0.182544
    31  H    0.137016
    32  H    0.114161
    33  H    0.113985
    34  C   -0.440429
    35  H    0.102744
    36  H    0.087235
    37  C   -0.092081
    38  H    0.135988
    39  H    0.072127
    40  H    0.094721
    41  Sn   0.307394
    42  Cl  -0.284907
    43  Cl  -0.292607
    44  Cl  -0.233662
    45  C   -0.173009
    46  H    0.131813
    47  H    0.115779
    48  H    0.112326
    49  H    0.077872
    50  C    0.012148
    51  C    0.045839
    52  C    0.006567
    53  C    0.002582
    54  H    0.052329
    55  C   -0.102133
    56  H    0.059684
    57  C   -0.572528
    58  H    0.132104
    59  H    0.136182
    60  H    0.157111
 Sum of Mulliken charges =   0.00000

 Dipole moment (field-independent basis, Debye):
    X=            -13.2073    Y=              1.7905    Z=             -0.4187  Tot=             13.3347
 Quadrupole moment (field-independent basis, Debye-Ang):
   XX=           -274.1367   YY=           -208.8331   ZZ=           -233.9122
   XY=             12.0415   XZ=             -1.2461   YZ=             -1.1808

 Normal termination of Gaussian 09 at Sun Aug 25 10:14:35 2019.
