 Gaussian 09, Revision D.01,
 Gaussian 09:  EM64L-G09RevD.01 24-Apr-2013

 ----------------------------------------------------------------------
 #PBEPBE/gen scf=(maxcycle=500,conver=4) NMR=GIAO scrf=(solvent=dichlor
 omethane)
 ----------------------------------------------------------------------

 -----------
 estrutura 2
 -----------
 Symbolic Z-matrix:
 Charge =  0 Multiplicity = 1

                         Standard orientation:
 ---------------------------------------------------------------------
 Center     Atomic      Atomic             Coordinates (Angstroms)
 Number     Number       Type             X           Y           Z
 ---------------------------------------------------------------------
      1         78           0       -0.008568   -0.119044    0.129280
      2         50           0        2.606349    0.014699   -0.336075
      3         15           0        0.020924   -2.522411    0.377248
      4         15           0       -0.101904    2.302620    0.284478
      5         17           0        3.760219   -1.718277   -1.580919
      6         17           0        4.145975    0.251659    1.522332
      7         17           0        3.362436    1.885042   -1.688642
      8          6           0        1.589542   -3.330057    0.954271
      9          1           0        2.344229   -3.148848    0.173275
     10          1           0        1.368744   -4.410932    0.924103
     11          6           0        2.127891   -2.939574    2.332434
     12          1           0        3.097669   -3.433904    2.498321
     13          1           0        2.297609   -1.856512    2.428056
     14          1           0        1.456004   -3.258002    3.142459
     15          6           0       -1.257496   -3.089703    1.600732
     16          1           0       -2.215798   -3.100558    1.056893
     17          1           0       -1.020101   -4.142951    1.827429
     18          6           0       -1.383198   -2.266191    2.886164
     19          1           0       -0.457543   -2.268165    3.478153
     20          1           0       -1.646367   -1.219523    2.671718
     21          1           0       -2.183847   -2.683861    3.516140
     22          6           0       -0.388636   -3.473164   -1.160070
     23          1           0       -0.154845   -4.529804   -0.946875
     24          1           0       -1.479667   -3.401996   -1.276737
     25          6           0        0.303386   -2.997631   -2.438904
     26          1           0       -0.020469   -3.620226   -3.287654
     27          1           0        0.035127   -1.953551   -2.667146
     28          1           0        1.399122   -3.055988   -2.375794
     29          6           0       -1.653196    2.882299    1.132489
     30          1           0       -2.456482    2.758229    0.389607
     31          1           0       -1.857382    2.155531    1.933357
     32          6           0       -1.685437    4.306842    1.696164
     33          1           0       -1.541158    5.071536    0.920127
     34          1           0       -2.671395    4.485291    2.153348
     35          1           0       -0.930087    4.466636    2.479442
     36          6           0       -0.033524    3.120636   -1.375558
     37          1           0       -1.000509    2.880223   -1.845459
     38          1           0        0.736163    2.569883   -1.935643
     39          6           0        0.259379    4.622326   -1.436767
     40          1           0        0.283020    4.940884   -2.490858
     41          1           0       -0.506350    5.226326   -0.929882
     42          1           0        1.239164    4.867926   -1.000146
     43          6           0        1.264197    3.006184    1.315672
     44          1           0        2.207404    2.854330    0.769095
     45          1           0        1.108199    4.095995    1.349613
     46          6           0        1.338930    2.425328    2.730350
     47          1           0        0.422523    2.624193    3.306641
     48          1           0        1.501998    1.337730    2.713899
     49          1           0        2.181115    2.877193    3.276068
     50         50           0       -2.632567   -0.172277   -0.333443
     51         17           0       -3.753970   -2.104238   -1.279052
     52         17           0       -3.444991    1.469468   -1.925936
     53         17           0       -4.142214    0.200486    1.528262
 ---------------------------------------------------------------------

 SCF Done:  E(RPBE-PBE) =  -32988.5378320     A.U. after    8 cycles

      1  Pt   Isotropic =  3438.3885   Anisotropy =  1627.8493

      2  Sn   Isotropic =  2109.7463   Anisotropy =   742.0475

      3  P    Isotropic =   255.5716   Anisotropy =   113.1786

      4  P    Isotropic =   266.1306   Anisotropy =    64.7247

      5  Cl   Isotropic =   720.9162   Anisotropy =   323.7280

      6  Cl   Isotropic =   729.2861   Anisotropy =   346.6864

      7  Cl   Isotropic =   747.1041   Anisotropy =   290.4497

      8  C    Isotropic =   145.0119   Anisotropy =    38.7552

      9  H    Isotropic =    27.8397   Anisotropy =     8.0266

     10  H    Isotropic =    29.6607   Anisotropy =     9.7403

     11  C    Isotropic =   172.6990   Anisotropy =    12.4792

     12  H    Isotropic =    30.1464   Anisotropy =    12.1827

     13  H    Isotropic =    29.6097   Anisotropy =     7.9239

     14  H    Isotropic =    30.1101   Anisotropy =     8.8371

     15  C    Isotropic =   146.9045   Anisotropy =    36.3275

     16  H    Isotropic =    28.9422   Anisotropy =     5.9454

     17  H    Isotropic =    29.4450   Anisotropy =    10.5316

     18  C    Isotropic =   169.5759   Anisotropy =    19.1207

     19  H    Isotropic =    30.2005   Anisotropy =     7.4289

     20  H    Isotropic =    29.8326   Anisotropy =     7.9584

     21  H    Isotropic =    30.1189   Anisotropy =    12.9399

     22  C    Isotropic =   148.6488   Anisotropy =    32.3495

     23  H    Isotropic =    29.4417   Anisotropy =    10.9617

     24  H    Isotropic =    28.1891   Anisotropy =    10.0752

     25  C    Isotropic =   168.6155   Anisotropy =    15.8600

     26  H    Isotropic =    30.0572   Anisotropy =    13.9088

     27  H    Isotropic =    30.8420   Anisotropy =     5.5187

     28  H    Isotropic =    29.6955   Anisotropy =     8.3762

     29  C    Isotropic =   148.3138   Anisotropy =    34.5707

     30  H    Isotropic =    28.4472   Anisotropy =    10.8600

     31  H    Isotropic =    28.5368   Anisotropy =     6.9538

     32  C    Isotropic =   170.2883   Anisotropy =    25.4933

     33  H    Isotropic =    29.9845   Anisotropy =     9.4733

     34  H    Isotropic =    29.9525   Anisotropy =    12.7303

     35  H    Isotropic =    29.9718   Anisotropy =     8.9786

     36  C    Isotropic =   151.7281   Anisotropy =    32.8028

     37  H    Isotropic =    28.5543   Anisotropy =     8.3787

     38  H    Isotropic =    28.5169   Anisotropy =     6.9474

     39  C    Isotropic =   170.7893   Anisotropy =    24.0835

     40  H    Isotropic =    30.0189   Anisotropy =    13.3035

     41  H    Isotropic =    30.0807   Anisotropy =     9.5886

     42  H    Isotropic =    29.9823   Anisotropy =     8.1223

     43  C    Isotropic =   159.1991   Anisotropy =    15.5941

     44  H    Isotropic =    28.9611   Anisotropy =     7.6326

     45  H    Isotropic =    29.1684   Anisotropy =     9.0648

     46  C    Isotropic =   173.0756   Anisotropy =    14.7370

     47  H    Isotropic =    30.5383   Anisotropy =     8.7285

     48  H    Isotropic =    29.8842   Anisotropy =     7.1067

     49  H    Isotropic =    30.1753   Anisotropy =    12.7030

     50  Sn   Isotropic =  2111.8658   Anisotropy =   733.9463

     51  Cl   Isotropic =   732.9461   Anisotropy =   328.4527

     52  Cl   Isotropic =   734.3533   Anisotropy =   321.8068

     53  Cl   Isotropic =   732.8059   Anisotropy =   327.8337

 The electronic state is 1-A.
 Alpha  occ. eigenvalues -- ******************************-427.55988-414.89044
 Alpha  occ. eigenvalues -- -414.88970-414.88731-149.67070-149.67054-141.94880
 Alpha  occ. eigenvalues -- -141.94875-141.94864-141.94861-141.94810-141.94794
 Alpha  occ. eigenvalues -- -100.56850-100.56837-100.56769-100.56694-100.56594
 Alpha  occ. eigenvalues -- -100.56568 -99.94030 -92.09896 -92.09768 -92.09403
 Alpha  occ. eigenvalues --  -79.05761 -79.05660 -79.05453 -79.05388 -79.05332
 Alpha  occ. eigenvalues --  -76.31784 -76.31492 -28.83460 -28.83440 -25.18091
 Alpha  occ. eigenvalues --  -25.18079 -25.18071 -25.18063 -25.17871 -25.17849
 Alpha  occ. eigenvalues --  -20.85470 -17.72979 -17.72978 -17.72962 -17.72961
 Alpha  occ. eigenvalues --  -17.72838 -17.72832 -17.72817 -17.72813 -17.72791
 Alpha  occ. eigenvalues --  -17.72770 -17.42325 -17.42081 -17.41316 -11.60660
 Alpha  occ. eigenvalues --  -11.60305 -11.59867 -11.59753 -11.59625  -9.91929
 Alpha  occ. eigenvalues --   -9.91915  -9.91911  -9.91732  -9.91304  -9.91254
 Alpha  occ. eigenvalues --   -9.89716  -9.89645  -9.89600  -9.89535  -9.89338
 Alpha  occ. eigenvalues --   -9.89056  -9.14716  -9.14709  -9.14642  -9.14564
 Alpha  occ. eigenvalues --   -9.14459  -9.14436  -6.98506  -6.98503  -6.98441
 Alpha  occ. eigenvalues --   -6.98352  -6.98250  -6.98227  -6.97906  -6.97891
 Alpha  occ. eigenvalues --   -6.97891  -6.97885  -6.97825  -6.97813  -6.97754
 Alpha  occ. eigenvalues --   -6.97739  -6.97648  -6.97634  -6.97626  -6.97609
 Alpha  occ. eigenvalues --   -6.34770  -6.34513  -4.57280  -4.57261  -4.57095
 Alpha  occ. eigenvalues --   -4.57013  -4.56997  -4.56847  -4.52181  -4.52157
 Alpha  occ. eigenvalues --   -3.25623  -3.25597  -3.25588  -3.25569  -3.25237
 Alpha  occ. eigenvalues --   -3.25207  -3.15540  -3.15506  -3.15059  -3.14804
 Alpha  occ. eigenvalues --   -3.14648  -3.14551  -3.14502  -2.88392  -1.83439
 Alpha  occ. eigenvalues --   -1.83088  -1.80818  -1.04679  -1.04667  -1.04656
 Alpha  occ. eigenvalues --   -1.04637  -1.04307  -1.04276  -1.04252  -1.04227
 Alpha  occ. eigenvalues --   -1.04211  -1.04154  -0.74636  -0.74399  -0.73545
 Alpha  occ. eigenvalues --   -0.73415  -0.71910  -0.71799  -0.71754  -0.71714
 Alpha  occ. eigenvalues --   -0.70197  -0.70191  -0.70029  -0.70016  -0.62295
 Alpha  occ. eigenvalues --   -0.62117  -0.57875  -0.57216  -0.57020  -0.56134
 Alpha  occ. eigenvalues --   -0.50775  -0.49576  -0.44758  -0.43808  -0.43480
 Alpha  occ. eigenvalues --   -0.43092  -0.42816  -0.41756  -0.41193  -0.40926
 Alpha  occ. eigenvalues --   -0.40806  -0.39404  -0.38899  -0.38374  -0.38019
 Alpha  occ. eigenvalues --   -0.37515  -0.36563  -0.35993  -0.35364  -0.35214
 Alpha  occ. eigenvalues --   -0.35089  -0.34529  -0.34240  -0.34118  -0.33950
 Alpha  occ. eigenvalues --   -0.33719  -0.33471  -0.33455  -0.33288  -0.32576
 Alpha  occ. eigenvalues --   -0.32423  -0.32355  -0.31885  -0.31632  -0.31176
 Alpha  occ. eigenvalues --   -0.30474  -0.30300  -0.29701  -0.29385  -0.28700
 Alpha  occ. eigenvalues --   -0.28587  -0.28538  -0.28458  -0.28373  -0.28303
 Alpha  occ. eigenvalues --   -0.28125  -0.27720  -0.27276  -0.27147  -0.26929
 Alpha  occ. eigenvalues --   -0.26880  -0.26839  -0.26625  -0.24427  -0.24013
 Alpha  occ. eigenvalues --   -0.22719
 Alpha virt. eigenvalues --   -0.13195  -0.08512  -0.05497  -0.05270  -0.05124
 Alpha virt. eigenvalues --   -0.03948  -0.03230  -0.02392  -0.01631  -0.01015
 Alpha virt. eigenvalues --   -0.00801  -0.00681  -0.00387   0.00067   0.00221

 Mulliken charges:
               1
     1  Pt   0.477473
     2  Sn   0.337814
     3  P    0.120120
     4  P   -0.214205
     5  Cl  -0.166987
     6  Cl  -0.228258
     7  Cl  -0.211060
     8  C   -0.420761
     9  H    0.091526
    10  H    0.104800
    11  C   -0.096666
    12  H    0.129669
    13  H    0.059576
    14  H    0.109323
    15  C   -0.443214
    16  H    0.092058
    17  H    0.118492
    18  C   -0.039129
    19  H    0.092734
    20  H    0.053427
    21  H    0.124001
    22  C   -0.374550
    23  H    0.102177
    24  H    0.092071
    25  C   -0.067113
    26  H    0.128541
    27  H    0.060450
    28  H    0.089849
    29  C   -0.351888
    30  H    0.068542
    31  H    0.095912
    32  C   -0.116934
    33  H    0.103181
    34  H    0.130321
    35  H    0.098729
    36  C   -0.285205
    37  H    0.088367
    38  H    0.094883
    39  C   -0.121900
    40  H    0.135653
    41  H    0.102159
    42  H    0.106147
    43  C   -0.360934
    44  H    0.090702
    45  H    0.117817
    46  C   -0.081649
    47  H    0.099208
    48  H    0.059282
    49  H    0.128567
    50  Sn   0.280024
    51  Cl  -0.163064
    52  Cl  -0.203124
    53  Cl  -0.236955
 Sum of Mulliken charges =   0.00000

 Dipole moment (field-independent basis, Debye):
    X=             -0.2381    Y=             -0.4747    Z=              5.5543  Tot=              5.5796
 Quadrupole moment (field-independent basis, Debye-Ang):
   XX=           -344.1303   YY=           -226.7267   ZZ=           -268.7441
   XY=             -5.3564   XZ=              0.3638   YZ=             -0.8040

 1\1\GINC-NEQC27\SP\RPBEPBE\Gen\C12H30Cl6P2Pt1Sn2\GUEST\04-Feb-2020\0\\
 #PBEPBE/gen scf=(maxcycle=500,conver=4) NMR=GIAO scrf=(solvent=dichlor
 omethane)\\estrutura 2\\0,1\Pt,0,-0.008568,-0.119044,0.12928\Sn,0,2.60
 6349,0.014699,-0.336075\P,0,0.020924,-2.522411,0.377248\P,0,-0.101904,
 2.30262,0.284478\Cl,0,3.760219,-1.718277,-1.580919\Cl,0,4.145975,0.251
 659,1.522332\Cl,0,3.362436,1.885042,-1.688642\C,0,1.589542,-3.330057,0
 .954271\H,0,2.344229,-3.148848,0.173275\H,0,1.368744,-4.410932,0.92410
 3\C,0,2.127891,-2.939574,2.332434\H,0,3.097669,-3.433904,2.498321\H,0,

 Normal termination of Gaussian 09 at Tue Feb  4 11:23:19 2020.
