 Gaussian 09, Revision D.01,
 Gaussian 09:  EM64L-G09RevD.01 24-Apr-2013

 ----------------------------------------------------------------------
 #PBEPBE/gen scf=(maxcycle=500,conver=4) NMR=GIAO Scrf=(solvent=Dichlor
 omethane)
 ----------------------------------------------------------------------

 ------------
 estrutura 28
 ------------
 Symbolic Z-matrix:
 Charge = -1 Multiplicity = 1

                         Standard orientation:
 ---------------------------------------------------------------------
 Center     Atomic      Atomic             Coordinates (Angstroms)
 Number     Number       Type             X           Y           Z
 ---------------------------------------------------------------------
      1         78           0       -0.908695   -1.291686   -0.247169
      2         17           0        0.373505   -3.275477   -0.812527
      3         17           0       -2.956248   -2.605954   -0.210229
      4         50           0       -2.681624    0.544959    0.243712
      5         17           0       -4.162433    1.045734   -1.597166
      6         17           0       -4.267488    0.198504    2.027840
      7         17           0       -2.073118    2.823535    0.860215
      8         15           0        0.814435    0.103221   -0.263346
      9          8           0        2.346767   -0.292242   -0.629677
     10          8           0        0.553426    1.279593   -1.355877
     11          8           0        0.985969    0.913909    1.147463
     12          6           0        3.122500   -1.443645   -0.568060
     13          6           0        3.692707   -1.891321   -1.760730
     14          6           0        3.387155   -2.079762    0.645689
     15          6           0        4.534616   -3.005165   -1.737799
     16          1           0        3.464103   -1.370931   -2.692728
     17          6           0        4.227465   -3.196404    0.654404
     18          1           0        2.939657   -1.710321    1.568295
     19          6           0        4.802148   -3.664189   -0.531450
     20          1           0        4.979146   -3.362334   -2.669550
     21          1           0        4.433050   -3.703554    1.600878
     22          1           0        5.456945   -4.538381   -0.517310
     23          6           0        2.085906    1.059195    1.981876
     24          6           0        2.113114    0.312105    3.165264
     25          6           0        3.104158    1.968982    1.678980
     26          6           0        3.177861    0.477501    4.054344
     27          1           0        1.298223   -0.385572    3.370710
     28          6           0        4.162516    2.125761    2.577881
     29          1           0        3.059270    2.549086    0.755792
     30          6           0        4.205785    1.383546    3.764610
     31          1           0        3.201634   -0.106125    4.978621
     32          1           0        4.959128    2.839957    2.348757
     33          1           0        5.035462    1.513473    4.461652
     34          6           0        1.382719    2.359826   -1.663609
     35          6           0        2.400116    2.201279   -2.610758
     36          6           0        1.124445    3.598515   -1.073137
     37          6           0        3.173938    3.310687   -2.964150
     38          1           0        2.570400    1.223888   -3.061259
     39          6           0        1.904745    4.699405   -1.439084
     40          1           0        0.312276    3.684373   -0.346327
     41          6           0        2.929597    4.558840   -2.382549
     42          1           0        3.972232    3.195344   -3.703613
     43          1           0        1.706256    5.673928   -0.985784
     44          1           0        3.535167    5.423595   -2.668249
 ---------------------------------------------------------------------

 SCF Done:  E(RPBE-PBE) =  -26652.3180016     A.U. after    9 cycles

      1  Pt   Isotropic =  2711.2317   Anisotropy =  2553.7149

      2  Cl   Isotropic =   912.0075   Anisotropy =   380.3916

      3  Cl   Isotropic =   977.8300   Anisotropy =   479.1871

      4  Sn   Isotropic =  2172.0271   Anisotropy =   765.4415

      5  Cl   Isotropic =   764.6186   Anisotropy =   344.4790

      6  Cl   Isotropic =   770.7180   Anisotropy =   326.2015

      7  Cl   Isotropic =   752.3780   Anisotropy =   327.3851

      8  P    Isotropic =   168.0828   Anisotropy =   275.5503

      9  O    Isotropic =   121.9960   Anisotropy =    99.4139

     10  O    Isotropic =   107.9707   Anisotropy =    95.2204

     11  O    Isotropic =   105.9368   Anisotropy =   108.1503

     12  C    Isotropic =    31.1377   Anisotropy =   136.4604

     13  C    Isotropic =    67.5956   Anisotropy =   159.8326

     14  C    Isotropic =    65.2211   Anisotropy =   163.5696

     15  C    Isotropic =    63.1859   Anisotropy =   189.4343

     16  H    Isotropic =    24.0218   Anisotropy =     9.4038

     17  C    Isotropic =    65.4998   Anisotropy =   196.7663

     18  H    Isotropic =    24.3136   Anisotropy =     8.7169

     19  C    Isotropic =    73.4882   Anisotropy =   194.5788

     20  H    Isotropic =    25.9198   Anisotropy =     2.2221

     21  H    Isotropic =    25.5695   Anisotropy =     5.4302

     22  H    Isotropic =    26.7452   Anisotropy =     3.3053

     23  C    Isotropic =    23.6464   Anisotropy =   116.9092

     24  C    Isotropic =    53.6045   Anisotropy =   154.3981

     25  C    Isotropic =    53.3375   Anisotropy =   152.8262

     26  C    Isotropic =    48.3863   Anisotropy =   171.4351

     27  H    Isotropic =    23.7696   Anisotropy =    10.0557

     28  C    Isotropic =    46.3040   Anisotropy =   170.9462

     29  H    Isotropic =    25.2643   Anisotropy =     8.6590

     30  C    Isotropic =    50.3877   Anisotropy =   160.9767

     31  H    Isotropic =    24.2571   Anisotropy =     4.9266

     32  H    Isotropic =    24.5332   Anisotropy =     6.7516

     33  H    Isotropic =    24.9216   Anisotropy =     2.2060

     34  C    Isotropic =    20.5902   Anisotropy =   100.1384

     35  C    Isotropic =    51.7788   Anisotropy =   153.9028

     36  C    Isotropic =    49.5145   Anisotropy =   157.7399

     37  C    Isotropic =    49.0854   Anisotropy =   187.8455

     38  H    Isotropic =    23.5379   Anisotropy =     9.8019

     39  C    Isotropic =    47.4126   Anisotropy =   184.7779

     40  H    Isotropic =    23.0181   Anisotropy =     9.6536

     41  C    Isotropic =    55.1629   Anisotropy =   189.8318

     42  H    Isotropic =    23.5167   Anisotropy =     5.9127

     43  H    Isotropic =    23.5264   Anisotropy =     6.7515

     44  H    Isotropic =    23.7669   Anisotropy =     3.6111

 The electronic state is 1-A.
 Alpha  occ. eigenvalues -- ********************-427.54112-414.87174-414.87086
 Alpha  occ. eigenvalues -- -414.86801-149.65383-141.93200-141.93192-141.93126
 Alpha  occ. eigenvalues -- -100.55241-100.55181-100.54925-100.52232-100.51129
 Alpha  occ. eigenvalues --  -99.92173 -92.08074 -92.07929 -92.07481 -79.03955
 Alpha  occ. eigenvalues --  -79.03823 -79.03580 -79.03493 -79.03432 -76.41334
 Alpha  occ. eigenvalues --  -28.81759 -25.16403 -25.16375 -25.16160 -20.83646
 Alpha  occ. eigenvalues --  -18.80320 -18.80204 -18.79903 -17.71287 -17.71286
 Alpha  occ. eigenvalues --  -17.71142 -17.71122 -17.71084 -17.40590 -17.40294
 Alpha  occ. eigenvalues --  -17.39361 -11.58987 -11.58521 -11.58032 -11.57838
 Alpha  occ. eigenvalues --  -11.57716  -9.96339  -9.96335  -9.96139  -9.90131
 Alpha  occ. eigenvalues --   -9.90110  -9.90042  -9.89988  -9.89971  -9.89966
 Alpha  occ. eigenvalues --   -9.89937  -9.89773  -9.89751  -9.89740  -9.89725
 Alpha  occ. eigenvalues --   -9.89659  -9.89619  -9.89588  -9.89380  -9.13083
 Alpha  occ. eigenvalues --   -9.13025  -9.12767  -9.10073  -9.08941  -6.96895
 Alpha  occ. eigenvalues --   -6.96845  -6.96559  -6.96266  -6.96250  -6.96212
 Alpha  occ. eigenvalues --   -6.96180  -6.95961  -6.95944  -6.93840  -6.93282
 Alpha  occ. eigenvalues --   -6.93259  -6.92710  -6.92183  -6.92099  -6.43127
 Alpha  occ. eigenvalues --   -4.65839  -4.65784  -4.65317  -4.50483  -3.23920
 Alpha  occ. eigenvalues --   -3.23895  -3.23543  -3.13853  -3.13816  -3.13282
 Alpha  occ. eigenvalues --   -3.12942  -3.12791  -3.12622  -3.12582  -2.86663
 Alpha  occ. eigenvalues --   -1.82191  -1.81310  -1.78697  -1.02974  -1.02953
 Alpha  occ. eigenvalues --   -1.02602  -1.02577  -1.02515  -1.01797  -0.97139
 Alpha  occ. eigenvalues --   -0.97006  -0.78772  -0.78190  -0.78055  -0.71848
 Alpha  occ. eigenvalues --   -0.70630  -0.70221  -0.69989  -0.68451  -0.68328
 Alpha  occ. eigenvalues --   -0.68147  -0.67811  -0.67714  -0.67583  -0.66325
 Alpha  occ. eigenvalues --   -0.62138  -0.57245  -0.56620  -0.55794  -0.55621
 Alpha  occ. eigenvalues --   -0.55334  -0.51962  -0.50436  -0.50146  -0.45795
 Alpha  occ. eigenvalues --   -0.44983  -0.44788  -0.44334  -0.42690  -0.42155
 Alpha  occ. eigenvalues --   -0.41853  -0.41800  -0.40295  -0.40058  -0.39309
 Alpha  occ. eigenvalues --   -0.38992  -0.38155  -0.37976  -0.37863  -0.37543
 Alpha  occ. eigenvalues --   -0.37221  -0.33857  -0.33396  -0.33260  -0.33031
 Alpha  occ. eigenvalues --   -0.32522  -0.32430  -0.32242  -0.32066  -0.31855
 Alpha  occ. eigenvalues --   -0.31662  -0.31525  -0.31422  -0.30406  -0.29748
 Alpha  occ. eigenvalues --   -0.29172  -0.28187  -0.28075  -0.27621  -0.27353
 Alpha  occ. eigenvalues --   -0.27028  -0.26920  -0.26491  -0.25801  -0.25551
 Alpha  occ. eigenvalues --   -0.25223  -0.24085  -0.23781  -0.23504  -0.23405
 Alpha  occ. eigenvalues --   -0.22970  -0.22642  -0.22370  -0.22200  -0.21744
 Alpha  occ. eigenvalues --   -0.21140  -0.20969  -0.20099
 Alpha virt. eigenvalues --   -0.11250  -0.05335  -0.05066  -0.04663  -0.04531
 Alpha virt. eigenvalues --   -0.04424  -0.04340  -0.04092  -0.02636  -0.01855
 Alpha virt. eigenvalues --   -0.00680   0.00245   0.00421   0.00825   0.00998

 Mulliken charges:
               1
     1  Pt   0.185732
     2  Cl  -0.534948
     3  Cl  -0.515789
     4  Sn   0.313158
     5  Cl  -0.224325
     6  Cl  -0.217658
     7  Cl  -0.227827
     8  P    0.172894
     9  O   -0.095939
    10  O   -0.076281
    11  O   -0.093286
    12  C   -0.442505
    13  C    0.214783
    14  C    0.178245
    15  C   -0.163845
    16  H    0.140281
    17  C   -0.040555
    18  H    0.110411
    19  C   -0.330249
    20  H    0.158577
    21  H    0.156899
    22  H    0.160404
    23  C   -0.573115
    24  C    0.329299
    25  C    0.179208
    26  C   -0.174288
    27  H    0.132467
    28  C   -0.057371
    29  H    0.105633
    30  C   -0.325087
    31  H    0.156056
    32  H    0.157010
    33  H    0.164215
    34  C   -0.631980
    35  C    0.218839
    36  C    0.272959
    37  C   -0.210751
    38  H    0.135827
    39  C   -0.045673
    40  H    0.119557
    41  C   -0.260274
    42  H    0.157645
    43  H    0.157224
    44  H    0.164422
 Sum of Mulliken charges =  -1.00000

 Dipole moment (field-independent basis, Debye):
    X=             18.4003    Y=              7.3847    Z=              1.2353  Tot=             19.8653
 Quadrupole moment (field-independent basis, Debye-Ang):
   XX=           -298.9396   YY=           -290.2613   ZZ=           -251.9951
   XY=              2.0172   XZ=              1.9540   YZ=            -12.4035

 Normal termination of Gaussian 09 at Tue Feb  4 09:16:02 2020.
