 Gaussian 09, Revision D.01,
 Gaussian 09:  EM64L-G09RevD.01 24-Apr-2013

 ----------------------------------------------------------------------
 #PBEPBE/gen scf=(maxcycle=500,conver=3) NMR=GIAO Scrf=(solvent=Dichlor
 omethane)
 ----------------------------------------------------------------------

 ------------
 estrutura 84
 ------------
 Symbolic Z-matrix:
 Charge =  0 Multiplicity = 1

                         Standard orientation:
 ---------------------------------------------------------------------
 Center     Atomic      Atomic             Coordinates (Angstroms)
 Number     Number       Type             X           Y           Z
 ---------------------------------------------------------------------
      1         78           0       -0.088464   -0.264832   -0.142223
      2          6           0        0.519516   -2.205129   -0.607226
      3          6           0        0.596819   -3.275882    0.304357
      4          6           0        0.838925   -2.490043   -1.951480
      5          6           0        0.946419   -4.567952   -0.105061
      6          1           0        0.386480   -3.110363    1.363425
      7          6           0        1.196834   -3.778705   -2.367732
      8          1           0        0.795894   -1.692755   -2.700230
      9          6           0        1.247588   -4.829325   -1.445541
     10          1           0        0.990033   -5.374487    0.633170
     11          1           0        1.433208   -3.961063   -3.420705
     12          1           0        1.525041   -5.836956   -1.766492
     13         15           0       -2.392245   -1.182147   -0.168412
     14         15           0       -0.558081    2.114220    0.140230
     15          6           0       -2.741418   -1.968467    1.469891
     16          6           0       -3.980381   -2.585768    1.723688
     17          6           0       -1.792766   -1.898759    2.502185
     18          6           0       -4.249274   -3.148173    2.974127
     19          1           0       -4.747149   -2.622569    0.946346
     20          6           0       -2.066607   -2.457277    3.757284
     21          1           0       -0.842271   -1.392468    2.324460
     22          6           0       -3.289203   -3.087521    3.992006
     23          1           0       -5.213160   -3.628990    3.154983
     24          1           0       -1.317588   -2.393051    4.550967
     25          1           0       -3.502829   -3.525167    4.971341
     26          6           0       -2.597409   -2.508378   -1.440225
     27          6           0       -2.428893   -2.154417   -2.792592
     28          6           0       -2.876270   -3.847199   -1.126058
     29          6           0       -2.578769   -3.104392   -3.804598
     30          1           0       -2.170853   -1.128388   -3.064712
     31          6           0       -3.008862   -4.802214   -2.140711
     32          1           0       -2.983054   -4.160637   -0.086963
     33          6           0       -2.871454   -4.433276   -3.481512
     34          1           0       -2.453461   -2.806295   -4.848970
     35          1           0       -3.221692   -5.840837   -1.875970
     36          1           0       -2.981337   -5.180554   -4.271459
     37          6           0       -3.943173   -0.173320   -0.366805
     38          6           0       -4.281553    0.711371    0.673429
     39          6           0       -4.798063   -0.259109   -1.480311
     40          6           0       -5.436933    1.489609    0.601687
     41          1           0       -3.643938    0.784360    1.555991
     42          6           0       -5.953637    0.524487   -1.549866
     43          1           0       -4.577771   -0.947105   -2.296134
     44          6           0       -6.279594    1.402445   -0.512841
     45          1           0       -5.680996    2.168845    1.423765
     46          1           0       -6.608540    0.439487   -2.422281
     47          1           0       -7.184925    2.010381   -0.568772
     48          6           0        0.858629    3.316298    0.100058
     49          6           0        1.165213    4.177253    1.164073
     50          6           0        1.617990    3.395770   -1.079594
     51          6           0        2.207007    5.103834    1.046353
     52          1           0        0.595282    4.131269    2.092422
     53          6           0        2.653916    4.324338   -1.197088
     54          1           0        1.399118    2.731608   -1.919101
     55          6           0        2.950725    5.183184   -0.133005
     56          1           0        2.434457    5.767010    1.885232
     57          1           0        3.235239    4.370809   -2.120885
     58          1           0        3.762790    5.909131   -0.223631
     59          6           0       -1.396023    2.521329    1.738271
     60          6           0       -2.495950    3.385819    1.860218
     61          6           0       -0.877793    1.914320    2.897209
     62          6           0       -3.063204    3.637974    3.114333
     63          1           0       -2.930433    3.857527    0.979225
     64          6           0       -1.443116    2.172827    4.149153
     65          1           0       -0.014312    1.249469    2.823139
     66          6           0       -2.539760    3.034572    4.260602
     67          1           0       -3.921413    4.310567    3.190677
     68          1           0       -1.025556    1.696738    5.039341
     69          1           0       -2.984897    3.233100    5.238801
     70          6           0       -1.571834    2.854063   -1.224573
     71          6           0       -1.814096    4.240098   -1.291810
     72          6           0       -2.020981    2.043163   -2.276388
     73          6           0       -2.520613    4.786580   -2.364984
     74          1           0       -1.432196    4.904494   -0.514031
     75          6           0       -2.718116    2.591297   -3.358875
     76          1           0       -1.804031    0.975057   -2.253058
     77          6           0       -2.976542    3.962633   -3.401406
     78          1           0       -2.704982    5.863036   -2.398762
     79          1           0       -3.055194    1.942009   -4.170737
     80          1           0       -3.521541    4.393519   -4.245106
     81         50           0        2.510261   -0.121585    0.337059
     82          6           0        3.913746    0.738163   -1.116637
     83          6           0        5.117177    1.319958   -0.683199
     84          6           0        3.660168    0.676760   -2.497253
     85          6           0        6.040903    1.829318   -1.603319
     86          1           0        5.337656    1.391813    0.386359
     87          6           0        4.583924    1.180497   -3.421907
     88          1           0        2.729706    0.235480   -2.869858
     89          6           0        5.776108    1.759420   -2.975919
     90          1           0        6.970456    2.282808   -1.247192
     91          1           0        4.370360    1.121837   -4.493509
     92          1           0        6.497682    2.155560   -3.695132
     93          6           0        3.652336   -1.849904    1.065486
     94          6           0        3.833120   -2.103781    2.435386
     95          6           0        4.250225   -2.725124    0.142238
     96          6           0        4.582150   -3.204686    2.871504
     97          1           0        3.401086   -1.424161    3.174956
     98          6           0        5.001160   -3.825408    0.573068
     99          1           0        4.133336   -2.559066   -0.933088
    100          6           0        5.167528   -4.069502    1.940946
    101          1           0        4.713212   -3.384100    3.942829
    102          1           0        5.457816   -4.494163   -0.162410
    103          1           0        5.754178   -4.928224    2.279615
    104         17           0        2.920476    1.275207    2.348295
 ---------------------------------------------------------------------

 SCF Done:  E(RPBE-PBE) =  -26316.8780904     A.U. after    8 cycles

      1  Pt   Isotropic =  2779.4948   Anisotropy =  2137.4189

      2  C    Isotropic =   139.1696   Anisotropy =   214.5896

      3  C    Isotropic =   178.8005   Anisotropy =   353.7000

      4  C    Isotropic =   166.2882   Anisotropy =   245.5744

      5  C    Isotropic =    14.5829   Anisotropy =    77.1409

      6  H    Isotropic =    22.3938   Anisotropy =    11.5534

      7  C    Isotropic =     2.4720   Anisotropy =    80.5786

      8  H    Isotropic =    21.8876   Anisotropy =    17.1356

      9  C    Isotropic =   -65.4390   Anisotropy =   119.5136

     10  H    Isotropic =    19.8236   Anisotropy =    11.2950

     11  H    Isotropic =    20.0006   Anisotropy =    13.1891

     12  H    Isotropic =    18.5542   Anisotropy =    12.7798

     13  P    Isotropic =   315.1004   Anisotropy =    70.6846

     14  P    Isotropic =   284.0876   Anisotropy =    69.8273

     15  C    Isotropic =    57.2686   Anisotropy =   108.2183

     16  C    Isotropic =    66.9597   Anisotropy =   217.8801

     17  C    Isotropic =    40.2698   Anisotropy =   143.6750

     18  C    Isotropic =    12.9792   Anisotropy =   128.4985

     19  H    Isotropic =    22.5252   Anisotropy =    15.1161

     20  C    Isotropic =    22.8861   Anisotropy =   128.2324

     21  H    Isotropic =    20.2598   Anisotropy =    14.5420

     22  C    Isotropic =    46.8032   Anisotropy =   261.2479

     23  H    Isotropic =    17.6591   Anisotropy =    14.2129

     24  H    Isotropic =    21.2507   Anisotropy =    10.8461

     25  H    Isotropic =    16.5424   Anisotropy =    15.2494

     26  C    Isotropic =    72.6665   Anisotropy =   274.3063

     27  C    Isotropic =   121.5127   Anisotropy =   396.5408

     28  C    Isotropic =   103.2254   Anisotropy =   303.0167

     29  C    Isotropic =    -0.5605   Anisotropy =   122.2724

     30  H    Isotropic =    22.4446   Anisotropy =    10.9552

     31  C    Isotropic =   -23.6135   Anisotropy =    97.4167

     32  H    Isotropic =    23.2878   Anisotropy =    11.8797

     33  C    Isotropic =   -20.5169   Anisotropy =   190.6092

     34  H    Isotropic =    18.1527   Anisotropy =    14.0153

     35  H    Isotropic =    16.1522   Anisotropy =    16.8297

     36  H    Isotropic =    15.1347   Anisotropy =    16.7341

     37  C    Isotropic =    -7.1642   Anisotropy =    73.7354

     38  C    Isotropic =    14.0065   Anisotropy =   105.6817

     39  C    Isotropic =    52.9576   Anisotropy =   164.9193

     40  C    Isotropic =    37.7700   Anisotropy =   175.6716

     41  H    Isotropic =    28.0371   Anisotropy =     8.2007

     42  C    Isotropic =    59.1859   Anisotropy =   197.4463

     43  H    Isotropic =    25.3020   Anisotropy =    16.8271

     44  C    Isotropic =    71.6026   Anisotropy =   266.7589

     45  H    Isotropic =    24.1362   Anisotropy =    10.2024

     46  H    Isotropic =    23.0526   Anisotropy =     9.9495

     47  H    Isotropic =    22.3014   Anisotropy =     7.3674

     48  C    Isotropic =    64.9123   Anisotropy =   254.8216

     49  C    Isotropic =    57.2720   Anisotropy =   214.4344

     50  C    Isotropic =    59.5765   Anisotropy =   199.9933

     51  C    Isotropic =     4.6656   Anisotropy =   104.4523

     52  H    Isotropic =    24.7580   Anisotropy =    11.2494

     53  C    Isotropic =    26.1273   Anisotropy =   153.1725

     54  H    Isotropic =    24.7854   Anisotropy =     8.6698

     55  C    Isotropic =    20.1910   Anisotropy =   238.9367

     56  H    Isotropic =    16.6752   Anisotropy =    15.3284

     57  H    Isotropic =    21.0195   Anisotropy =    11.6774

     58  H    Isotropic =    15.5252   Anisotropy =    17.5665

     59  C    Isotropic =    32.1804   Anisotropy =   209.7504

     60  C    Isotropic =    47.4515   Anisotropy =   203.9433

     61  C    Isotropic =    14.5563   Anisotropy =   157.1624

     62  C    Isotropic =    30.6362   Anisotropy =   159.0160

     63  H    Isotropic =    24.9377   Anisotropy =    11.8299

     64  C    Isotropic =    37.1189   Anisotropy =   187.4245

     65  H    Isotropic =    23.6881   Anisotropy =    11.3584

     66  C    Isotropic =    49.2006   Anisotropy =   278.2020

     67  H    Isotropic =    19.8950   Anisotropy =    11.3224

     68  H    Isotropic =    22.0543   Anisotropy =    10.9598

     69  H    Isotropic =    19.6501   Anisotropy =    11.7271

     70  C    Isotropic =    47.4627   Anisotropy =   199.1284

     71  C    Isotropic =    67.2611   Anisotropy =   237.7437

     72  C    Isotropic =    19.4558   Anisotropy =   130.9838

     73  C    Isotropic =    36.9463   Anisotropy =   152.6061

     74  H    Isotropic =    25.4470   Anisotropy =    14.2216

     75  C    Isotropic =    34.8900   Anisotropy =   187.3836

     76  H    Isotropic =    23.0825   Anisotropy =    13.6009

     77  C    Isotropic =    53.5842   Anisotropy =   263.4475

     78  H    Isotropic =    22.4032   Anisotropy =     8.9657

     79  H    Isotropic =    22.6867   Anisotropy =    11.0039

     80  H    Isotropic =    21.1113   Anisotropy =     9.5505

     81  Sn   Isotropic =  2133.2180   Anisotropy =   542.4659

     82  C    Isotropic =    58.0788   Anisotropy =   138.2720

     83  C    Isotropic =    71.5314   Anisotropy =   198.2862

     84  C    Isotropic =    71.1134   Anisotropy =   197.4023

     85  C    Isotropic =    -2.1957   Anisotropy =    59.5721

     86  H    Isotropic =    23.2958   Anisotropy =    12.5494

     87  C    Isotropic =    27.9090   Anisotropy =   115.7278

     88  H    Isotropic =    22.1174   Anisotropy =    14.8135

     89  C    Isotropic =    14.3432   Anisotropy =   112.1439

     90  H    Isotropic =    20.8284   Anisotropy =    10.6444

     91  H    Isotropic =    22.4097   Anisotropy =     8.7652

     92  H    Isotropic =    18.8539   Anisotropy =    10.6367

     93  C    Isotropic =   124.8604   Anisotropy =   419.3500

     94  C    Isotropic =   101.1398   Anisotropy =   282.3513

     95  C    Isotropic =   111.7545   Anisotropy =   257.5766

     96  C    Isotropic =    41.7187   Anisotropy =    93.1330

     97  H    Isotropic =    22.2356   Anisotropy =    17.8455

     98  C    Isotropic =    47.8732   Anisotropy =   103.2758

     99  H    Isotropic =    24.2357   Anisotropy =    13.9433

    100  C    Isotropic =  -106.4716   Anisotropy =   268.2494

    101  H    Isotropic =    31.1469   Anisotropy =    16.0507

    102  H    Isotropic =    32.1597   Anisotropy =    17.7764

    103  H    Isotropic =    35.8073   Anisotropy =    30.0868

    104  Cl   Isotropic =   938.3207   Anisotropy =    83.3368

 The electronic state is 1-A.
 Alpha  occ. eigenvalues -- ********************-427.53320-414.86378-414.86297
 Alpha  occ. eigenvalues -- -414.86090-149.60481-141.88316-141.88208-141.88180
 Alpha  occ. eigenvalues -- -100.53866 -99.91379 -92.07235 -92.07072 -92.06810
 Alpha  occ. eigenvalues --  -79.03079 -79.02967 -79.02819 -79.02741 -79.02709
 Alpha  occ. eigenvalues --  -76.30629 -76.29560 -28.77042 -25.11836 -25.11510
 Alpha  occ. eigenvalues --  -25.11424 -20.82881 -17.66607 -17.66556 -17.66498
 Alpha  occ. eigenvalues --  -17.66282 -17.66274 -17.39730 -17.39403 -17.38832
 Alpha  occ. eigenvalues --  -11.58029 -11.57643 -11.57322 -11.57179 -11.57106
 Alpha  occ. eigenvalues --   -9.92978  -9.92502  -9.92155  -9.91942  -9.91821
 Alpha  occ. eigenvalues --   -9.91661  -9.91267  -9.91077  -9.91071  -9.90916
 Alpha  occ. eigenvalues --   -9.90839  -9.90718  -9.90546  -9.90502  -9.90492
 Alpha  occ. eigenvalues --   -9.90471  -9.90456  -9.90417  -9.90363  -9.90362
 Alpha  occ. eigenvalues --   -9.90323  -9.90316  -9.90229  -9.90229  -9.90225
 Alpha  occ. eigenvalues --   -9.90208  -9.90193  -9.90174  -9.90170  -9.90145
 Alpha  occ. eigenvalues --   -9.90115  -9.90086  -9.89940  -9.89734  -9.89724
 Alpha  occ. eigenvalues --   -9.89637  -9.89609  -9.89607  -9.89575  -9.89549
 Alpha  occ. eigenvalues --   -9.89525  -9.89430  -9.89399  -9.89345  -9.89328
 Alpha  occ. eigenvalues --   -9.89291  -9.89231  -9.89204  -9.89032  -9.88842
 Alpha  occ. eigenvalues --   -9.88735  -9.88656  -9.88516  -9.87921  -9.11648
 Alpha  occ. eigenvalues --   -6.95393  -6.94886  -6.94843  -6.33721  -6.32768
 Alpha  occ. eigenvalues --   -4.56278  -4.56268  -4.55902  -4.55331  -4.55303
 Alpha  occ. eigenvalues --   -4.54923  -4.46016  -3.19811  -3.19172  -3.19029
 Alpha  occ. eigenvalues --   -3.12901  -3.12844  -3.12491  -3.12207  -3.12115
 Alpha  occ. eigenvalues --   -3.12003  -3.11978  -2.85834  -1.80893  -1.80362
 Alpha  occ. eigenvalues --   -1.78382  -0.98866  -0.98538  -0.98432  -0.98118
 Alpha  occ. eigenvalues --   -0.97963  -0.79744  -0.79573  -0.78907  -0.78877
 Alpha  occ. eigenvalues --   -0.78632  -0.78316  -0.77396  -0.77262  -0.76789
 Alpha  occ. eigenvalues --   -0.71559  -0.71269  -0.69362  -0.68967  -0.68792
 Alpha  occ. eigenvalues --   -0.68765  -0.68711  -0.68550  -0.68420  -0.68160
 Alpha  occ. eigenvalues --   -0.68127  -0.67941  -0.67801  -0.67231  -0.67133
 Alpha  occ. eigenvalues --   -0.66820  -0.66689  -0.66497  -0.66292  -0.60568
 Alpha  occ. eigenvalues --   -0.60212  -0.56086  -0.55903  -0.55715  -0.55594
 Alpha  occ. eigenvalues --   -0.55246  -0.55053  -0.54664  -0.54588  -0.54465
 Alpha  occ. eigenvalues --   -0.54294  -0.53953  -0.53759  -0.53456  -0.53356
 Alpha  occ. eigenvalues --   -0.52857  -0.52788  -0.51755  -0.51454  -0.47653
 Alpha  occ. eigenvalues --   -0.47455  -0.47412  -0.47201  -0.46601  -0.45716
 Alpha  occ. eigenvalues --   -0.45674  -0.45597  -0.45242  -0.42014  -0.41931
 Alpha  occ. eigenvalues --   -0.41860  -0.41652  -0.41347  -0.41220  -0.40935
 Alpha  occ. eigenvalues --   -0.40889  -0.40677  -0.40449  -0.40394  -0.40216
 Alpha  occ. eigenvalues --   -0.39990  -0.39752  -0.39574  -0.39416  -0.39330
 Alpha  occ. eigenvalues --   -0.39263  -0.38729  -0.38547  -0.38382  -0.38318
 Alpha  occ. eigenvalues --   -0.38190  -0.38061  -0.37823  -0.37719  -0.37467
 Alpha  occ. eigenvalues --   -0.37102  -0.36917  -0.36820  -0.36721  -0.36290
 Alpha  occ. eigenvalues --   -0.36044  -0.35351  -0.34641  -0.34473  -0.34196
 Alpha  occ. eigenvalues --   -0.34123  -0.34013  -0.33735  -0.33367  -0.33255
 Alpha  occ. eigenvalues --   -0.32968  -0.32749  -0.32624  -0.32251  -0.31642
 Alpha  occ. eigenvalues --   -0.31472  -0.31275  -0.31014  -0.30934  -0.30765
 Alpha  occ. eigenvalues --   -0.30574  -0.30333  -0.30238  -0.29816  -0.29668
 Alpha  occ. eigenvalues --   -0.29626  -0.29533  -0.29370  -0.29136  -0.28509
 Alpha  occ. eigenvalues --   -0.27027  -0.26537  -0.26177  -0.25601  -0.25417
 Alpha  occ. eigenvalues --   -0.25233  -0.25125  -0.24796  -0.24683  -0.24433
 Alpha  occ. eigenvalues --   -0.24421  -0.24270  -0.24041  -0.23855  -0.23630
 Alpha  occ. eigenvalues --   -0.23507  -0.23344  -0.23089  -0.22896  -0.22811
 Alpha  occ. eigenvalues --   -0.22493  -0.22106  -0.21930  -0.21533  -0.21294
 Alpha  occ. eigenvalues --   -0.20475  -0.18921
 Alpha virt. eigenvalues --   -0.07785  -0.07512  -0.07234  -0.06594  -0.06394
 Alpha virt. eigenvalues --   -0.06058  -0.05867  -0.05749  -0.05623  -0.05313
 Alpha virt. eigenvalues --   -0.05177  -0.04997  -0.04657  -0.04539  -0.04371

 Mulliken charges:
               1
     1  Pt   0.233459
     2  C    0.023963
     3  C   -0.106807
     4  C    0.004384
     5  C    0.048981
     6  H    0.028289
     7  C    0.019367
     8  H    0.026182
     9  C   -0.549072
    10  H    0.112875
    11  H    0.116251
    12  H    0.132721
    13  P    1.267226
    14  P    1.004951
    15  C   -1.229350
    16  C    0.464730
    17  C    0.477698
    18  C    0.029109
    19  H    0.090734
    20  C   -0.201006
    21  H    0.054266
    22  C   -0.635468
    23  H    0.140538
    24  H    0.133015
    25  H    0.152828
    26  C   -0.907289
    27  C    0.652191
    28  C    0.112534
    29  C    0.020141
    30  H    0.041484
    31  C   -0.160669
    32  H    0.089015
    33  C   -0.454058
    34  H    0.125688
    35  H    0.131135
    36  H    0.146751
    37  C   -1.103019
    38  C    0.499022
    39  C    0.288122
    40  C   -0.030427
    41  H    0.052448
    42  C   -0.178073
    43  H    0.074796
    44  C   -0.464606
    45  H    0.126643
    46  H    0.136039
    47  H    0.146977
    48  C   -1.130328
    49  C    0.298197
    50  C    0.566195
    51  C   -0.142122
    52  H    0.082450
    53  C   -0.024560
    54  H    0.069845
    55  C   -0.512968
    56  H    0.138107
    57  H    0.124306
    58  H    0.141163
    59  C   -0.740801
    60  C    0.317890
    61  C    0.464723
    62  C   -0.156818
    63  H    0.059505
    64  C   -0.043490
    65  H    0.057679
    66  C   -0.586798
    67  H    0.132430
    68  H    0.138479
    69  H    0.146641
    70  C   -0.851053
    71  C    0.293997
    72  C    0.279981
    73  C    0.080465
    74  H    0.092652
    75  C   -0.249947
    76  H    0.064303
    77  C   -0.584690
    78  H    0.144520
    79  H    0.125342
    80  H    0.150033
    81  Sn   0.380504
    82  C   -0.053825
    83  C    0.067434
    84  C   -0.009984
    85  C   -0.114946
    86  H    0.112145
    87  C   -0.050973
    88  H    0.086986
    89  C   -0.552609
    90  H    0.147457
    91  H    0.144541
    92  H    0.151600
    93  C   -0.047828
    94  C    0.063405
    95  C   -0.083450
    96  C   -0.219953
    97  H    0.130320
    98  C    0.000534
    99  H    0.107430
   100  C   -0.574103
   101  H    0.156337
   102  H    0.149321
   103  H    0.158679
   104  Cl  -0.279055
 Sum of Mulliken charges =   0.00000

 Dipole moment (field-independent basis, Debye):
    X=            -11.1458    Y=              1.3330    Z=             -3.0755  Tot=             11.6389
 Quadrupole moment (field-independent basis, Debye-Ang):
   XX=           -394.4390   YY=           -371.3390   ZZ=           -365.0057
   XY=             -0.1960   XZ=            -12.7690   YZ=             -2.4055

 Normal termination of Gaussian 09 at Wed Nov 20 05:22:30 2019.
