 Gaussian 09, Revision D.01,
 Gaussian 09:  EM64L-G09RevD.01 24-Apr-2013

 ----------------------------------------------------------------------
 #PBEPBE/gen scf=(maxcycle=500,conver=4) NMR=GIAO Scrf=(solvent=Dichlor
 omethane)
 ----------------------------------------------------------------------

 ------------
 estrutura 35
 ------------
 Symbolic Z-matrix:
 Charge = -1 Multiplicity = 1

                         Standard orientation:
 ---------------------------------------------------------------------
 Center     Atomic      Atomic             Coordinates (Angstroms)
 Number     Number       Type             X           Y           Z
 ---------------------------------------------------------------------
      1         78           0        0.038724   -0.866167   -0.448452
      2         17           0        0.159739   -3.138877   -1.332471
      3         50           0        2.671124   -1.183758   -0.300129
      4         50           0       -2.570736   -1.380149   -0.321025
      5         17           0        4.224125    0.429695    0.686423
      6         17           0        3.869851   -1.633279   -2.361165
      7         17           0        3.343302   -3.094516    1.035291
      8         17           0       -3.739153   -1.468743   -2.455181
      9         17           0       -3.177846   -3.539671    0.601138
     10         17           0       -4.194127   -0.059811    0.949642
     11         15           0       -0.020613    1.276127    0.361344
     12          6           0        0.096817    1.214588    2.188975
     13          6           0        1.331412    1.275844    2.855422
     14          6           0       -1.055528    0.894161    2.932720
     15          6           0        1.406708    1.029316    4.228846
     16          1           0        2.246550    1.497431    2.306940
     17          6           0       -0.966484    0.650401    4.302220
     18          1           0       -2.029212    0.815355    2.444867
     19          6           0        0.265384    0.702549    4.977126
     20          1           0        2.380970    1.080671    4.723135
     21          1           0       -1.875534    0.399641    4.856154
     22          6           0        1.275196    2.382201   -0.335161
     23          6           0        1.794394    3.483964    0.364839
     24          6           0        1.620285    2.220328   -1.686742
     25          6           0        2.635581    4.396750   -0.274292
     26          1           0        1.549173    3.637659    1.416498
     27          6           0        2.458482    3.142158   -2.319382
     28          1           0        1.224555    1.374713   -2.257787
     29          6           0        2.978086    4.249742   -1.628787
     30          1           0        3.029770    5.245515    0.293050
     31          1           0        2.708594    2.997783   -3.373494
     32          6           0       -1.517779    2.252232   -0.073695
     33          6           0       -2.017042    3.257844    0.769962
     34          6           0       -2.087520    2.091386   -1.345411
     35          6           0       -3.072257    4.068482    0.350963
     36          1           0       -1.584942    3.414817    1.760304
     37          6           0       -3.141436    2.910387   -1.757492
     38          1           0       -1.710845    1.321966   -2.026280
     39          6           0       -3.652985    3.914595   -0.919818
     40          1           0       -3.451702    4.841114    1.026699
     41          1           0       -3.575207    2.759888   -2.749872
     42          6           0        0.356141    0.372593    6.445360
     43          1           0       -0.500947    0.776261    7.006426
     44          1           0        0.348491   -0.720276    6.593160
     45          1           0        1.280425    0.759621    6.895216
     46          6           0        3.886869    5.243010   -2.309512
     47          1           0        3.669706    6.271395   -1.983642
     48          1           0        4.944909    5.041990   -2.064533
     49          1           0        3.786135    5.198937   -3.403743
     50          6           0       -4.788312    4.806163   -1.358031
     51          1           0       -5.661634    4.690152   -0.692701
     52          1           0       -4.495952    5.870493   -1.320669
     53          1           0       -5.110206    4.575647   -2.384068
 ---------------------------------------------------------------------

 SCF Done:  E(RPBE-PBE) =  -33444.6184264     A.U. after   10 cycles

      1  Pt   Isotropic =  2806.0433   Anisotropy =  2526.4342

      2  Cl   Isotropic =  1067.1962   Anisotropy =   898.0384

      3  Sn   Isotropic =  2212.8530   Anisotropy =   656.7726

      4  Sn   Isotropic =  2213.8711   Anisotropy =   664.3980

      5  Cl   Isotropic =   769.4861   Anisotropy =   291.5517

      6  Cl   Isotropic =   790.2243   Anisotropy =   318.2484

      7  Cl   Isotropic =   770.2238   Anisotropy =   323.7676

      8  Cl   Isotropic =   780.2102   Anisotropy =   328.2764

      9  Cl   Isotropic =   776.9229   Anisotropy =   307.7028

     10  Cl   Isotropic =   765.9002   Anisotropy =   302.0618

     11  P    Isotropic =   242.8820   Anisotropy =   133.2468

     12  C    Isotropic =    56.3099   Anisotropy =   152.4106

     13  C    Isotropic =    48.6632   Anisotropy =   188.1474

     14  C    Isotropic =    46.6005   Anisotropy =   187.2969

     15  C    Isotropic =    46.0109   Anisotropy =   161.0337

     16  H    Isotropic =    22.6745   Anisotropy =     8.5482

     17  C    Isotropic =    43.5054   Anisotropy =   158.0902

     18  H    Isotropic =    22.8270   Anisotropy =     9.1732

     19  C    Isotropic =    41.6110   Anisotropy =   234.3228

     20  H    Isotropic =    23.2635   Anisotropy =     9.1310

     21  H    Isotropic =    23.2172   Anisotropy =    10.0828

     22  C    Isotropic =    46.8830   Anisotropy =   180.1589

     23  C    Isotropic =    45.8147   Anisotropy =   169.8067

     24  C    Isotropic =    56.5337   Anisotropy =   189.0900

     25  C    Isotropic =    44.3430   Anisotropy =   156.5461

     26  H    Isotropic =    23.3610   Anisotropy =    11.7054

     27  C    Isotropic =    53.6364   Anisotropy =   167.6808

     28  H    Isotropic =    22.6449   Anisotropy =    13.3536

     29  C    Isotropic =    33.1204   Anisotropy =   187.8558

     30  H    Isotropic =    23.4329   Anisotropy =     7.7559

     31  H    Isotropic =    24.3649   Anisotropy =     8.3092

     32  C    Isotropic =    47.7466   Anisotropy =   188.1378

     33  C    Isotropic =    46.7687   Anisotropy =   170.8113

     34  C    Isotropic =    59.3512   Anisotropy =   192.8624

     35  C    Isotropic =    47.5037   Anisotropy =   166.1458

     36  H    Isotropic =    23.6242   Anisotropy =    12.1851

     37  C    Isotropic =    57.1487   Anisotropy =   168.9801

     38  H    Isotropic =    22.6832   Anisotropy =    11.7333

     39  C    Isotropic =    34.4467   Anisotropy =   193.3221

     40  H    Isotropic =    23.6697   Anisotropy =     7.6637

     41  H    Isotropic =    24.5034   Anisotropy =     8.2488

     42  C    Isotropic =   160.5780   Anisotropy =    39.9763

     43  H    Isotropic =    28.7564   Anisotropy =     8.8549

     44  H    Isotropic =    28.6248   Anisotropy =     8.2724

     45  H    Isotropic =    28.7729   Anisotropy =     8.7382

     46  C    Isotropic =   161.1136   Anisotropy =    42.6871

     47  H    Isotropic =    29.1209   Anisotropy =     8.7765

     48  H    Isotropic =    28.7822   Anisotropy =     8.9221

     49  H    Isotropic =    29.3141   Anisotropy =     7.6777

     50  C    Isotropic =   160.8457   Anisotropy =    43.0880

     51  H    Isotropic =    28.8783   Anisotropy =     8.4933

     52  H    Isotropic =    29.0381   Anisotropy =     9.2287

     53  H    Isotropic =    29.2846   Anisotropy =     7.4522

 The electronic state is 1-A.
 Alpha  occ. eigenvalues -- ******************************-427.53660-414.86713
 Alpha  occ. eigenvalues -- -414.86649-414.86387-149.64868-149.64841-141.92681
 Alpha  occ. eigenvalues -- -141.92673-141.92655-141.92648-141.92612-141.92584
 Alpha  occ. eigenvalues -- -100.54991-100.54919-100.54817-100.54793-100.54692
 Alpha  occ. eigenvalues -- -100.54670-100.52807 -99.91714 -92.07571 -92.07484
 Alpha  occ. eigenvalues --  -92.07060 -79.03464 -79.03347 -79.03108 -79.03072
 Alpha  occ. eigenvalues --  -79.02999 -76.32242 -28.81248 -28.81219 -25.15887
 Alpha  occ. eigenvalues --  -25.15857 -25.15857 -25.15832 -25.15661 -25.15630
 Alpha  occ. eigenvalues --  -20.83178 -17.70768 -17.70767 -17.70741 -17.70740
 Alpha  occ. eigenvalues --  -17.70635 -17.70615 -17.70604 -17.70588 -17.70580
 Alpha  occ. eigenvalues --  -17.70551 -17.40028 -17.39849 -17.38970 -11.58436
 Alpha  occ. eigenvalues --  -11.58021 -11.57523 -11.57468 -11.57303  -9.91930
 Alpha  occ. eigenvalues --   -9.91730  -9.91609  -9.91175  -9.91141  -9.91042
 Alpha  occ. eigenvalues --   -9.90559  -9.90515  -9.90376  -9.90307  -9.90240
 Alpha  occ. eigenvalues --   -9.90216  -9.89798  -9.89772  -9.89730  -9.89675
 Alpha  occ. eigenvalues --   -9.89582  -9.89543  -9.88467  -9.88465  -9.88382
 Alpha  occ. eigenvalues --   -9.12847  -9.12774  -9.12676  -9.12652  -9.12561
 Alpha  occ. eigenvalues --   -9.12543  -9.10588  -6.96640  -6.96558  -6.96473
 Alpha  occ. eigenvalues --   -6.96451  -6.96337  -6.96318  -6.96037  -6.96022
 Alpha  occ. eigenvalues --   -6.95967  -6.95956  -6.95868  -6.95846  -6.95843
 Alpha  occ. eigenvalues --   -6.95816  -6.95765  -6.95743  -6.95736  -6.95722
 Alpha  occ. eigenvalues --   -6.94356  -6.93800  -6.93788  -6.35130  -4.57659
 Alpha  occ. eigenvalues --   -4.57639  -4.57439  -4.49963  -4.49930  -3.23400
 Alpha  occ. eigenvalues --   -3.23368  -3.23361  -3.23331  -3.23029  -3.22992
 Alpha  occ. eigenvalues --   -3.13304  -3.13272  -3.12780  -3.12488  -3.12305
 Alpha  occ. eigenvalues --   -3.12255  -3.12186  -2.86184  -1.81422  -1.80924
 Alpha  occ. eigenvalues --   -1.78462  -1.02443  -1.02423  -1.02408  -1.02387
 Alpha  occ. eigenvalues --   -1.02087  -1.02060  -1.02055  -1.02011  -1.01988
 Alpha  occ. eigenvalues --   -1.01933  -0.79586  -0.78763  -0.78734  -0.72832
 Alpha  occ. eigenvalues --   -0.71521  -0.71476  -0.70586  -0.70494  -0.69955
 Alpha  occ. eigenvalues --   -0.69910  -0.69770  -0.69751  -0.68252  -0.68220
 Alpha  occ. eigenvalues --   -0.67950  -0.67921  -0.65134  -0.62092  -0.61953
 Alpha  occ. eigenvalues --   -0.57490  -0.55696  -0.55597  -0.54839  -0.52972
 Alpha  occ. eigenvalues --   -0.52858  -0.51299  -0.45984  -0.45885  -0.43425
 Alpha  occ. eigenvalues --   -0.42511  -0.42334  -0.41791  -0.41718  -0.40994
 Alpha  occ. eigenvalues --   -0.40393  -0.40305  -0.39868  -0.37974  -0.37776
 Alpha  occ. eigenvalues --   -0.37700  -0.37506  -0.37397  -0.37319  -0.36814
 Alpha  occ. eigenvalues --   -0.36127  -0.35727  -0.33949  -0.33870  -0.33791
 Alpha  occ. eigenvalues --   -0.33579  -0.32752  -0.32657  -0.32174  -0.31894
 Alpha  occ. eigenvalues --   -0.31765  -0.31672  -0.31623  -0.31164  -0.30518
 Alpha  occ. eigenvalues --   -0.30328  -0.30037  -0.29966  -0.29807  -0.29461
 Alpha  occ. eigenvalues --   -0.27850  -0.27626  -0.27033  -0.26887  -0.26836
 Alpha  occ. eigenvalues --   -0.26798  -0.26718  -0.26557  -0.26268  -0.25639
 Alpha  occ. eigenvalues --   -0.25474  -0.25391  -0.25370  -0.25084  -0.25058
 Alpha  occ. eigenvalues --   -0.23878  -0.23757  -0.23649  -0.23295  -0.23122
 Alpha  occ. eigenvalues --   -0.23035  -0.22153  -0.21842  -0.20660  -0.19761
 Alpha virt. eigenvalues --   -0.11859  -0.07251  -0.06419  -0.05653  -0.05591
 Alpha virt. eigenvalues --   -0.05070  -0.04723  -0.04245  -0.03074  -0.02644
 Alpha virt. eigenvalues --   -0.01670  -0.01558  -0.01145  -0.00883   0.00229

 Mulliken charges:
               1
     1  Pt   0.254955
     2  Cl  -0.496265
     3  Sn   0.361454
     4  Sn   0.328322
     5  Cl  -0.250248
     6  Cl  -0.250309
     7  Cl  -0.226852
     8  Cl  -0.266696
     9  Cl  -0.202572
    10  Cl  -0.255028
    11  P    1.262899
    12  C   -0.700713
    13  C    0.296299
    14  C    0.337086
    15  C   -0.468766
    16  H    0.102474
    17  C   -0.359109
    18  H    0.090566
    19  C   -0.132834
    20  H    0.099514
    21  H    0.103297
    22  C   -0.873184
    23  C    0.285814
    24  C    0.647401
    25  C   -0.326053
    26  H    0.106091
    27  C   -0.434365
    28  H    0.093554
    29  C   -0.156931
    30  H    0.102210
    31  H    0.097061
    32  C   -1.012905
    33  C    0.319707
    34  C    0.684405
    35  C   -0.277755
    36  H    0.107655
    37  C   -0.477591
    38  H    0.095664
    39  C   -0.179300
    40  H    0.103670
    41  H    0.095998
    42  C   -0.322222
    43  H    0.149840
    44  H    0.150499
    45  H    0.142590
    46  C   -0.329470
    47  H    0.149039
    48  H    0.150486
    49  H    0.142414
    50  C   -0.300302
    51  H    0.148481
    52  H    0.153324
    53  H    0.136697
 Sum of Mulliken charges =  -1.00000

 Dipole moment (field-independent basis, Debye):
    X=             -0.7141    Y=             20.6507    Z=              5.2110  Tot=             21.3100
 Quadrupole moment (field-independent basis, Debye-Ang):
   XX=           -391.4317   YY=           -337.3638   ZZ=           -302.2674
   XY=             -1.4094   XZ=             -0.4705   YZ=            -13.5428

 Normal termination of Gaussian 09 at Thu May 30 10:48:09 2019.
