 Gaussian 09, Revision D.01,
 Gaussian 09:  EM64L-G09RevD.01 24-Apr-2013

 ----------------------------------------------------------------------
 #PBEPBE/gen scf=(maxcycle=1000,conver=4) NMR=GIAO Scrf=(solvent=Dichlo
 romethane)
 ----------------------------------------------------------------------

 -----------
 estrutura 5
 -----------
 Symbolic Z-matrix:
 Charge =  0 Multiplicity = 1

                         Standard orientation:
 ---------------------------------------------------------------------
 Center     Atomic      Atomic             Coordinates (Angstroms)
 Number     Number       Type             X           Y           Z
 ---------------------------------------------------------------------
      1         78           0        0.001946    0.574535    0.149294
      2          1           0        0.010450    2.139742    0.127915
      3         50           0       -0.029913   -2.187817    0.209986
      4         15           0       -2.348059    0.736888   -0.019534
      5         15           0        2.357872    0.721098    0.003483
      6         17           0       -1.926097   -3.368305    1.222023
      7         17           0        1.733035   -3.429565    1.376771
      8         17           0        0.028443   -3.399784   -1.914815
      9          6           0        3.002594    2.398910   -0.431710
     10          6           0        3.850732    2.624507   -1.525835
     11          6           0        2.655899    3.478471    0.401096
     12          6           0        4.338561    3.910232   -1.787127
     13          1           0        4.136444    1.801960   -2.183916
     14          6           0        3.155324    4.757538    0.143550
     15          1           0        1.994448    3.322259    1.256019
     16          6           0        3.996102    4.976572   -0.955118
     17          1           0        4.992280    4.073305   -2.648699
     18          1           0        2.883380    5.585002    0.800829
     19          1           0        4.380863    5.978654   -1.160779
     20          6           0        2.963591   -0.376921   -1.341377
     21          6           0        3.959736   -1.350129   -1.164129
     22          6           0        2.348116   -0.242657   -2.600401
     23          6           0        4.343807   -2.160907   -2.238412
     24          1           0        4.430497   -1.493214   -0.190707
     25          6           0        2.741514   -1.048280   -3.668934
     26          1           0        1.550087    0.491334   -2.742436
     27          6           0        3.742979   -2.009493   -3.489347
     28          1           0        5.118256   -2.917735   -2.089068
     29          1           0        2.256023   -0.933463   -4.640915
     30          1           0        4.045994   -2.646143   -4.324170
     31          6           0        3.286041    0.328849    1.541131
     32          6           0        4.683595    0.486273    1.597976
     33          6           0        2.593139   -0.071191    2.693263
     34          6           0        5.373974    0.223296    2.783826
     35          1           0        5.239273    0.822204    0.716992
     36          6           0        3.285995   -0.319442    3.883255
     37          1           0        1.507342   -0.181240    2.663693
     38          6           0        4.674871   -0.177969    3.927776
     39          1           0        6.460044    0.339569    2.814545
     40          1           0        2.732994   -0.623567    4.777279
     41          1           0        5.216177   -0.374834    4.857132
     42          6           0       -3.004164    2.426451   -0.386429
     43          6           0       -2.645648    3.478807    0.473779
     44          6           0       -3.890948    2.681142   -1.443829
     45          6           0       -3.165814    4.758807    0.283852
     46          1           0       -1.956772    3.296574    1.303530
     47          6           0       -4.405206    3.969992   -1.638692
     48          1           0       -4.188031    1.881168   -2.121955
     49          6           0       -4.044350    5.009535   -0.775518
     50          1           0       -2.882630    5.566894    0.966098
     51          1           0       -5.091292    4.154836   -2.466291
     52          1           0       -4.449119    6.013102   -0.926345
     53          6           0       -3.285890    0.280221    1.494128
     54          6           0       -4.693784    0.277908    1.512571
     55          6           0       -2.584367    0.019313    2.682675
     56          6           0       -5.380493   -0.014721    2.692841
     57          1           0       -5.261586    0.512146    0.609167
     58          6           0       -3.275050   -0.252744    3.867538
     59          1           0       -1.492274    0.038282    2.680584
     60          6           0       -4.671804   -0.279553    3.872900
     61          1           0       -6.472743   -0.023211    2.695922
     62          1           0       -2.717200   -0.446516    4.785136
     63          1           0       -5.211688   -0.500115    4.796470
     64          6           0       -2.908256   -0.308148   -1.425057
     65          6           0       -3.834873   -1.354887   -1.306911
     66          6           0       -2.297417   -0.066617   -2.671591
     67          6           0       -4.154536   -2.136250   -2.423638
     68          1           0       -4.295763   -1.583041   -0.345527
     69          6           0       -2.624818   -0.844557   -3.781965
     70          1           0       -1.554528    0.729573   -2.770332
     71          6           0       -3.556403   -1.882049   -3.659805
     72          1           0       -4.872531   -2.953234   -2.319558
     73          1           0       -2.142910   -0.647201   -4.742391
     74          1           0       -3.806814   -2.497489   -4.527339
 ---------------------------------------------------------------------

 SCF Done:  E(RPBE-PBE) =  -26542.9125321     A.U. after    9 cycles

      1  Pt   Isotropic =  3378.3389   Anisotropy =   697.8191

      2  H    Isotropic =    32.0395   Anisotropy =    29.0490

      3  Sn   Isotropic =  2169.2349   Anisotropy =   753.4106

      4  P    Isotropic =   259.9121   Anisotropy =    94.8154

      5  P    Isotropic =   258.2868   Anisotropy =    96.1350

      6  Cl   Isotropic =   767.7623   Anisotropy =   275.2862

      7  Cl   Isotropic =   766.6144   Anisotropy =   288.0843

      8  Cl   Isotropic =   775.4164   Anisotropy =   321.0252

      9  C    Isotropic =    30.9637   Anisotropy =   203.1789

     10  C    Isotropic =    42.9948   Anisotropy =   174.5040

     11  C    Isotropic =    44.6127   Anisotropy =   187.7239

     12  C    Isotropic =    59.9859   Anisotropy =   203.6716

     13  H    Isotropic =    24.1082   Anisotropy =    13.7200

     14  C    Isotropic =    62.7068   Anisotropy =   208.4258

     15  H    Isotropic =    22.9190   Anisotropy =    13.6574

     16  C    Isotropic =    65.5556   Anisotropy =   222.5964

     17  H    Isotropic =    24.3286   Anisotropy =     6.0067

     18  H    Isotropic =    24.6067   Anisotropy =     5.9578

     19  H    Isotropic =    25.0577   Anisotropy =     1.5018

     20  C    Isotropic =    32.8517   Anisotropy =   191.5267

     21  C    Isotropic =    32.5577   Anisotropy =   170.3377

     22  C    Isotropic =    41.0785   Anisotropy =   185.3333

     23  C    Isotropic =    53.6300   Anisotropy =   186.3727

     24  H    Isotropic =    23.9079   Anisotropy =    10.7869

     25  C    Isotropic =    57.4108   Anisotropy =   197.1738

     26  H    Isotropic =    23.1316   Anisotropy =    11.8372

     27  C    Isotropic =    47.6480   Anisotropy =   157.2315

     28  H    Isotropic =    24.8589   Anisotropy =     4.5956

     29  H    Isotropic =    24.6156   Anisotropy =     5.2086

     30  H    Isotropic =    25.4484   Anisotropy =     1.6318

     31  C    Isotropic =    36.1380   Anisotropy =   186.0040

     32  C    Isotropic =    30.4874   Anisotropy =   168.2024

     33  C    Isotropic =    29.6358   Anisotropy =   154.7628

     34  C    Isotropic =    56.3060   Anisotropy =   194.1764

     35  H    Isotropic =    24.2579   Anisotropy =    11.8444

     36  C    Isotropic =    56.2344   Anisotropy =   196.1673

     37  H    Isotropic =    22.6403   Anisotropy =    15.3899

     38  C    Isotropic =    50.1073   Anisotropy =   182.6159

     39  H    Isotropic =    25.0485   Anisotropy =     4.3077

     40  H    Isotropic =    24.2887   Anisotropy =     7.2864

     41  H    Isotropic =    25.4160   Anisotropy =     1.3583

     42  C    Isotropic =    44.7060   Anisotropy =   193.5176

     43  C    Isotropic =    54.4767   Anisotropy =   197.6374

     44  C    Isotropic =    61.9689   Anisotropy =   207.2372

     45  C    Isotropic =    42.6960   Anisotropy =   163.9566

     46  H    Isotropic =    22.7834   Anisotropy =    13.6240

     47  C    Isotropic =    45.5812   Anisotropy =   161.2694

     48  H    Isotropic =    23.7640   Anisotropy =    14.1920

     49  C    Isotropic =    44.5164   Anisotropy =   185.4840

     50  H    Isotropic =    22.9428   Anisotropy =     8.0689

     51  H    Isotropic =    23.2372   Anisotropy =     7.3647

     52  H    Isotropic =    22.7551   Anisotropy =     4.8782

     53  C    Isotropic =    40.6843   Anisotropy =   170.6173

     54  C    Isotropic =    43.9523   Anisotropy =   186.3661

     55  C    Isotropic =    37.3837   Anisotropy =   171.0444

     56  C    Isotropic =    47.1735   Anisotropy =   174.3799

     57  H    Isotropic =    23.8169   Anisotropy =    11.9716

     58  C    Isotropic =    48.9691   Anisotropy =   183.2322

     59  H    Isotropic =    22.5659   Anisotropy =    15.0017

     60  C    Isotropic =    43.0002   Anisotropy =   178.6278

     61  H    Isotropic =    23.9641   Anisotropy =     5.5355

     62  H    Isotropic =    23.6882   Anisotropy =     7.7964

     63  H    Isotropic =    23.9119   Anisotropy =     3.4212

     64  C    Isotropic =    46.6171   Anisotropy =   173.1876

     65  C    Isotropic =    42.5610   Anisotropy =   180.6616

     66  C    Isotropic =    47.2564   Anisotropy =   184.2850

     67  C    Isotropic =    47.3638   Anisotropy =   177.6022

     68  H    Isotropic =    23.2775   Anisotropy =     9.9079

     69  C    Isotropic =    53.5495   Anisotropy =   183.8265

     70  H    Isotropic =    23.0593   Anisotropy =    12.0776

     71  C    Isotropic =    44.8184   Anisotropy =   156.9832

     72  H    Isotropic =    23.6413   Anisotropy =     5.9396

     73  H    Isotropic =    23.9327   Anisotropy =     5.8805

     74  H    Isotropic =    24.0637   Anisotropy =     2.5061

 The electronic state is 1-A.
 Alpha  occ. eigenvalues -- ********************-427.54473-414.87497-414.87487
 Alpha  occ. eigenvalues -- -414.87211-149.64639-141.92452-141.92450-141.92380
 Alpha  occ. eigenvalues -- -100.54882-100.54842-100.54783 -99.92518 -92.08372
 Alpha  occ. eigenvalues --  -92.08261 -92.07896 -79.04256 -79.04136 -79.03934
 Alpha  occ. eigenvalues --  -79.03879 -79.03830 -76.31873 -76.31673 -28.80985
 Alpha  occ. eigenvalues --  -25.15617 -25.15613 -25.15390 -20.83997 -17.70516
 Alpha  occ. eigenvalues --  -17.70515 -17.70366 -17.70364 -17.70319 -17.40832
 Alpha  occ. eigenvalues --  -17.40630 -17.39847 -11.59225 -11.58801 -11.58381
 Alpha  occ. eigenvalues --  -11.58280 -11.58177  -9.92646  -9.92624  -9.92622
 Alpha  occ. eigenvalues --   -9.92486  -9.92425  -9.92413  -9.91369  -9.91342
 Alpha  occ. eigenvalues --   -9.91234  -9.91204  -9.91194  -9.91144  -9.91103
 Alpha  occ. eigenvalues --   -9.91086  -9.91069  -9.91017  -9.91000  -9.90988
 Alpha  occ. eigenvalues --   -9.90954  -9.90918  -9.90865  -9.90818  -9.90802
 Alpha  occ. eigenvalues --   -9.90782  -9.90753  -9.90719  -9.90712  -9.90709
 Alpha  occ. eigenvalues --   -9.90703  -9.90661  -9.90651  -9.90648  -9.90637
 Alpha  occ. eigenvalues --   -9.90617  -9.90586  -9.90566  -9.12709  -9.12678
 Alpha  occ. eigenvalues --   -9.12621  -6.96480  -6.96442  -6.96385  -6.95914
 Alpha  occ. eigenvalues --   -6.95899  -6.95890  -6.95867  -6.95831  -6.95811
 Alpha  occ. eigenvalues --   -6.34876  -6.34703  -4.57422  -4.57402  -4.57244
 Alpha  occ. eigenvalues --   -4.57230  -4.57117  -4.56940  -4.49656  -3.23088
 Alpha  occ. eigenvalues --   -3.23080  -3.22688  -3.14088  -3.14061  -3.13602
 Alpha  occ. eigenvalues --   -3.13304  -3.13170  -3.13101  -3.13057  -2.87045
 Alpha  occ. eigenvalues --   -1.82054  -1.82035  -1.79335  -1.02123  -1.02121
 Alpha  occ. eigenvalues --   -1.01744  -1.01742  -1.01628  -0.80115  -0.80092
 Alpha  occ. eigenvalues --   -0.79263  -0.79252  -0.79161  -0.79140  -0.72125
 Alpha  occ. eigenvalues --   -0.72031  -0.71405  -0.69843  -0.69789  -0.69227
 Alpha  occ. eigenvalues --   -0.69219  -0.69112  -0.69081  -0.68950  -0.68927
 Alpha  occ. eigenvalues --   -0.68684  -0.68647  -0.68628  -0.68612  -0.61301
 Alpha  occ. eigenvalues --   -0.61004  -0.56279  -0.56267  -0.56180  -0.56110
 Alpha  occ. eigenvalues --   -0.55676  -0.55628  -0.55104  -0.55047  -0.55010
 Alpha  occ. eigenvalues --   -0.54987  -0.52231  -0.51953  -0.47933  -0.47912
 Alpha  occ. eigenvalues --   -0.47905  -0.47881  -0.46129  -0.45733  -0.42566
 Alpha  occ. eigenvalues --   -0.42296  -0.42279  -0.42220  -0.41860  -0.41832
 Alpha  occ. eigenvalues --   -0.41541  -0.41203  -0.41174  -0.41042  -0.41012
 Alpha  occ. eigenvalues --   -0.40664  -0.40436  -0.38904  -0.38738  -0.38680
 Alpha  occ. eigenvalues --   -0.38653  -0.38585  -0.38494  -0.38407  -0.38282
 Alpha  occ. eigenvalues --   -0.37743  -0.37678  -0.37085  -0.35826  -0.34928
 Alpha  occ. eigenvalues --   -0.34873  -0.34814  -0.34233  -0.34219  -0.33832
 Alpha  occ. eigenvalues --   -0.33441  -0.32500  -0.31980  -0.31684  -0.31527
 Alpha  occ. eigenvalues --   -0.31491  -0.31448  -0.31357  -0.31298  -0.31289
 Alpha  occ. eigenvalues --   -0.30883  -0.30540  -0.30501  -0.30114  -0.28763
 Alpha  occ. eigenvalues --   -0.28287  -0.27538  -0.27179  -0.26907  -0.26733
 Alpha  occ. eigenvalues --   -0.26472  -0.25725  -0.25671  -0.25463  -0.25351
 Alpha  occ. eigenvalues --   -0.25184  -0.25061  -0.24620  -0.24554  -0.24339
 Alpha  occ. eigenvalues --   -0.24263  -0.24115  -0.24004  -0.23946  -0.23846
 Alpha  occ. eigenvalues --   -0.22187  -0.21910  -0.21034
 Alpha virt. eigenvalues --   -0.09225  -0.07673  -0.07623  -0.07217  -0.07037
 Alpha virt. eigenvalues --   -0.06733  -0.06268  -0.06183  -0.05870  -0.05767
 Alpha virt. eigenvalues --   -0.05256  -0.05212  -0.04803  -0.04346  -0.03326

 Mulliken charges:
               1
     1  Pt   0.443514
     2  H    0.035225
     3  Sn   0.230871
     4  P    0.899231
     5  P    0.813654
     6  Cl  -0.254080
     7  Cl  -0.251191
     8  Cl  -0.265037
     9  C   -0.985280
    10  C    0.333366
    11  C    0.427986
    12  C   -0.161522
    13  H    0.102132
    14  C   -0.144772
    15  H    0.105167
    16  C   -0.536358
    17  H    0.148195
    18  H    0.147936
    19  H    0.157909
    20  C   -0.627917
    21  C    0.151905
    22  C    0.499130
    23  C   -0.173049
    24  H    0.102891
    25  C   -0.062437
    26  H    0.082052
    27  C   -0.547846
    28  H    0.143440
    29  H    0.136619
    30  H    0.151738
    31  C   -0.581555
    32  C    0.239304
    33  C    0.231340
    34  C    0.065001
    35  H    0.110616
    36  C   -0.244478
    37  H    0.092043
    38  C   -0.603192
    39  H    0.146738
    40  H    0.142864
    41  H    0.154594
    42  C   -1.062492
    43  C    0.411239
    44  C    0.372254
    45  C   -0.107007
    46  H    0.106787
    47  C   -0.177266
    48  H    0.104130
    49  C   -0.549967
    50  H    0.149553
    51  H    0.147859
    52  H    0.156700
    53  C   -0.594162
    54  C    0.197224
    55  C    0.297015
    56  C    0.046793
    57  H    0.112881
    58  C   -0.196151
    59  H    0.086787
    60  C   -0.624244
    61  H    0.146070
    62  H    0.141914
    63  H    0.153970
    64  C   -0.605134
    65  C    0.138528
    66  C    0.459014
    67  C   -0.155969
    68  H    0.106803
    69  C   -0.062658
    70  H    0.086168
    71  C   -0.575372
    72  H    0.142100
    73  H    0.139466
    74  H    0.150421
 Sum of Mulliken charges =   0.00000

 Dipole moment (field-independent basis, Debye):
    X=              0.1951    Y=             13.3650    Z=             -0.9456  Tot=             13.3998
 Quadrupole moment (field-independent basis, Debye-Ang):
   XX=           -276.6363   YY=           -353.1629   ZZ=           -295.6465
   XY=             -0.2775   XZ=              0.2328   YZ=              5.8059

 1\1\GINC-NEQC17\SP\RPBEPBE\Gen\C36H31Cl3P2Pt1Sn1\DIEGO\07-Sep-2018\0\\
 #PBEPBE/gen scf=(maxcycle=1000,conver=4) NMR=GIAO Scrf=(solvent=Dichlo
 romethane)\\estrutura 5\\0,1\Pt,0,0.001946,0.574535,0.149294\H,0,0.010
 45,2.139742,0.127915\Sn,0,-0.029913,-2.187817,0.209986\P,0,-2.348059,0
 .736888,-0.019534\P,0,2.357872,0.721098,0.003483\Cl,0,-1.926097,-3.368
 305,1.222023\Cl,0,1.733035,-3.429565,1.376771\Cl,0,0.028443,-3.399784,
 -1.914815\C,0,3.002594,2.39891,-0.43171\C,0,3.850732,2.624507,-1.52583
 5\C,0,2.655899,3.478471,0.401096\C,0,4.338561,3.910232,-1.787127\H,0,4

 Normal termination of Gaussian 09 at Fri Sep  7 13:09:43 2018.
