 Gaussian 09, Revision A.02,
 Gaussian 09:  EM64L-G09RevA.02 11-Jun-2009

 ----------------------------------------------------------------------
 #PBEPBE/gen scf=(maxcycle=500,conver=4) NMR=GIAO Scrf=(solvent=Dichlor
 omethane)
 ----------------------------------------------------------------------

 ------------
 estrutura 42
 ------------
 Symbolic Z-matrix:
 Charge = -3 Multiplicity = 1

                         Standard orientation:
 ---------------------------------------------------------------------
 Center     Atomic      Atomic             Coordinates (Angstroms)
 Number     Number       Type             X           Y           Z
 ---------------------------------------------------------------------
      1         78           0        0.015245    0.006518    0.002818
      2         50           0        0.080971   -0.778270    2.576093
      3         50           0       -2.632669   -0.010399    0.054059
      4         50           0       -0.023638   -1.874806   -1.940333
      5         50           0       -0.045090    2.633627   -0.628890
      6         50           0        2.653726    0.043182   -0.056858
      7         17           0       -0.240238   -3.140849    3.142439
      8         17           0       -1.530251    0.235962    4.124611
      9         17           0        2.054066   -0.374951    3.973072
     10         17           0        3.861286    1.807569    1.070771
     11         17           0        3.838469   -1.859751    0.847618
     12         17           0        3.730459    0.163048   -2.220229
     13         17           0        1.901366    3.710878   -1.652132
     14         17           0       -0.450045    4.288959    1.136954
     15         17           0       -1.686246    3.391414   -2.286505
     16         17           0       -3.782655   -1.722062    1.323231
     17         17           0       -3.808369    1.923045    0.914982
     18         17           0       -3.826929   -0.243829   -2.039034
     19         17           0       -1.690574   -3.666484   -1.738792
     20         17           0       -0.423704   -1.223169   -4.270050
     21         17           0        1.885476   -3.358902   -2.351840
 ---------------------------------------------------------------------

 SCF Done:  E(RPBE-PBE) =  -53911.4621676     A.U. after   10 cycles

  1  Pt   Isotropic =  4161.8929   Anisotropy =   133.2053

  2  Sn   Isotropic =  2124.5908   Anisotropy =   902.8885

  3  Sn   Isotropic =  2076.9543   Anisotropy =   849.7845

  4  Sn   Isotropic =  2130.9725   Anisotropy =   895.4104

  5  Sn   Isotropic =  2123.5858   Anisotropy =   888.4245

  6  Sn   Isotropic =  2073.7163   Anisotropy =   852.2345

  7  Cl   Isotropic =   719.0512   Anisotropy =   395.9275

  8  Cl   Isotropic =   692.2467   Anisotropy =   403.6988

  9  Cl   Isotropic =   688.3984   Anisotropy =   387.7540

 10  Cl   Isotropic =   690.2208   Anisotropy =   389.8762

 11  Cl   Isotropic =   686.5199   Anisotropy =   388.6102

 12  Cl   Isotropic =   685.1212   Anisotropy =   396.3992

 13  Cl   Isotropic =   685.5937   Anisotropy =   386.7689

 14  Cl   Isotropic =   716.9660   Anisotropy =   396.5654

 15  Cl   Isotropic =   694.5284   Anisotropy =   401.5942

 16  Cl   Isotropic =   687.7439   Anisotropy =   391.1726

 17  Cl   Isotropic =   686.8118   Anisotropy =   387.9063

 18  Cl   Isotropic =   684.9844   Anisotropy =   388.9863

 19  Cl   Isotropic =   689.6515   Anisotropy =   400.4732

 20  Cl   Isotropic =   719.6329   Anisotropy =   394.2036

 21  Cl   Isotropic =   696.1467   Anisotropy =   385.9917

 The electronic state is 1-A.
 Alpha  occ. eigenvalues -- **************************************************
 Alpha  occ. eigenvalues -- **********-427.54180-414.87210-414.87039-414.87034
 Alpha  occ. eigenvalues -- -149.64370-149.64351-149.63322-149.63254-149.63187
 Alpha  occ. eigenvalues -- -141.92178-141.92177-141.92158-141.92157-141.92113
 Alpha  occ. eigenvalues -- -141.92095-141.91132-141.91129-141.91069-141.91065
 Alpha  occ. eigenvalues -- -141.91060-141.91000-141.90998-141.90993-141.90933
 Alpha  occ. eigenvalues -- -100.53714-100.53701-100.53696-100.53668-100.53639
 Alpha  occ. eigenvalues -- -100.53636-100.52984-100.52978-100.52929-100.52911
 Alpha  occ. eigenvalues -- -100.52910-100.52853-100.52847-100.52819-100.52790
 Alpha  occ. eigenvalues --  -99.92235 -92.08126 -92.07780 -92.07769 -79.03907
 Alpha  occ. eigenvalues --  -79.03780 -79.03774 -79.03577 -79.03577 -28.80780
 Alpha  occ. eigenvalues --  -28.80764 -28.79702 -28.79635 -28.79568 -25.15402
 Alpha  occ. eigenvalues --  -25.15400 -25.15384 -25.15382 -25.15196 -25.15184
 Alpha  occ. eigenvalues --  -25.14321 -25.14317 -25.14256 -25.14249 -25.14189
 Alpha  occ. eigenvalues --  -25.14182 -25.14131 -25.14061 -25.13994 -20.83681
 Alpha  occ. eigenvalues --  -17.70291 -17.70291 -17.70273 -17.70273 -17.70153
 Alpha  occ. eigenvalues --  -17.70152 -17.70138 -17.70137 -17.70112 -17.70098
 Alpha  occ. eigenvalues --  -17.69212 -17.69211 -17.69146 -17.69145 -17.69085
 Alpha  occ. eigenvalues --  -17.69083 -17.69079 -17.69079 -17.69046 -17.69018
 Alpha  occ. eigenvalues --  -17.69013 -17.68977 -17.68951 -17.68947 -17.68910
 Alpha  occ. eigenvalues --  -17.40584 -17.39897 -17.39875 -11.58708 -11.58351
 Alpha  occ. eigenvalues --  -11.58338 -11.57939 -11.57939  -9.11580  -9.11568
 Alpha  occ. eigenvalues --   -9.11566  -9.11536  -9.11512  -9.11506  -9.10839
 Alpha  occ. eigenvalues --   -9.10837  -9.10792  -9.10779  -9.10769  -9.10718
 Alpha  occ. eigenvalues --   -9.10715  -9.10684  -9.10654  -6.95392  -6.95384
 Alpha  occ. eigenvalues --   -6.95379  -6.95347  -6.95326  -6.95319  -6.94755
 Alpha  occ. eigenvalues --   -6.94748  -6.94744  -6.94737  -6.94736  -6.94729
 Alpha  occ. eigenvalues --   -6.94710  -6.94705  -6.94684  -6.94679  -6.94677
 Alpha  occ. eigenvalues --   -6.94673  -6.94620  -6.94616  -6.94567  -6.94556
 Alpha  occ. eigenvalues --   -6.94547  -6.94491  -6.94490  -6.94461  -6.94425
 Alpha  occ. eigenvalues --   -6.94036  -6.94034  -6.94021  -6.94020  -6.93989
 Alpha  occ. eigenvalues --   -6.93978  -6.93973  -6.93967  -6.93964  -6.93952
 Alpha  occ. eigenvalues --   -6.93916  -6.93910  -6.93906  -6.93901  -6.93879
 Alpha  occ. eigenvalues --   -6.93869  -6.93852  -6.93842  -4.49512  -4.49504
 Alpha  occ. eigenvalues --   -4.48382  -4.48320  -4.48252  -3.22928  -3.22924
 Alpha  occ. eigenvalues --   -3.22915  -3.22912  -3.22593  -3.22592  -3.21799
 Alpha  occ. eigenvalues --   -3.21778  -3.21739  -3.21713  -3.21672  -3.21649
 Alpha  occ. eigenvalues --   -3.21461  -3.21398  -3.21327  -3.13582  -3.13435
 Alpha  occ. eigenvalues --   -3.13420  -3.13065  -3.13064  -3.12786  -3.12783
 Alpha  occ. eigenvalues --   -2.86660  -1.81669  -1.80285  -1.80235  -1.01980
 Alpha  occ. eigenvalues --   -1.01979  -1.01975  -1.01970  -1.01607  -1.01603
 Alpha  occ. eigenvalues --   -1.01598  -1.01593  -1.01585  -1.01524  -1.00801
 Alpha  occ. eigenvalues --   -1.00795  -1.00736  -1.00735  -1.00668  -1.00667
 Alpha  occ. eigenvalues --   -1.00471  -1.00440  -1.00415  -1.00391  -1.00380
 Alpha  occ. eigenvalues --   -1.00343  -1.00327  -1.00309  -1.00253  -0.70515
 Alpha  occ. eigenvalues --   -0.70485  -0.69554  -0.69518  -0.69456  -0.68753
 Alpha  occ. eigenvalues --   -0.68738  -0.68715  -0.68699  -0.67988  -0.67972
 Alpha  occ. eigenvalues --   -0.67922  -0.67902  -0.67850  -0.67797  -0.42004
 Alpha  occ. eigenvalues --   -0.40203  -0.39413  -0.39380  -0.39308  -0.32251
 Alpha  occ. eigenvalues --   -0.31724  -0.31679  -0.30824  -0.30808  -0.30235
 Alpha  occ. eigenvalues --   -0.30205  -0.30120  -0.29875  -0.29539  -0.29459
 Alpha  occ. eigenvalues --   -0.29411  -0.28863  -0.28813  -0.27558  -0.27518
 Alpha  occ. eigenvalues --   -0.27332  -0.26205  -0.26185  -0.25959  -0.25951
 Alpha  occ. eigenvalues --   -0.25610  -0.25584  -0.25562  -0.25203  -0.25160
 Alpha  occ. eigenvalues --   -0.25134  -0.24932  -0.24910  -0.24880  -0.24320
 Alpha  occ. eigenvalues --   -0.24288  -0.24201  -0.23965  -0.23942  -0.23921
 Alpha  occ. eigenvalues --   -0.23885  -0.23647  -0.23592  -0.23473  -0.23356
 Alpha  occ. eigenvalues --   -0.23235  -0.23191  -0.22980  -0.22879  -0.22836
 Alpha  occ. eigenvalues --   -0.20833  -0.18207  -0.18069
 Alpha virt. eigenvalues --   -0.10947  -0.04637  -0.04586  -0.04317  -0.04262
 Alpha virt. eigenvalues --   -0.04217  -0.03235  -0.00942  -0.00875  -0.00264
 Alpha virt. eigenvalues --    0.00258   0.00703   0.00736   0.01377   0.02173

 Mulliken atomic charges:
              1
     1  Pt  -1.329943
     2  Sn   0.359602
     3  Sn   0.142740
     4  Sn   0.361084
     5  Sn   0.365867
     6  Sn   0.150987
     7  Cl  -0.214418
     8  Cl  -0.231042
     9  Cl  -0.235830
    10  Cl  -0.163047
    11  Cl  -0.162194
    12  Cl  -0.167014
    13  Cl  -0.233958
    14  Cl  -0.222900
    15  Cl  -0.227272
    16  Cl  -0.167385
    17  Cl  -0.166033
    18  Cl  -0.169442
    19  Cl  -0.234277
    20  Cl  -0.217789
    21  Cl  -0.237734
 Sum of Mulliken atomic charges =  -3.00000

 Dipole moment (field-independent basis, Debye):
    X=              0.4989    Y=              0.3615    Z=              0.0471  Tot=              0.6179
 Quadrupole moment (field-independent basis, Debye-Ang):
   XX=           -484.7732   YY=           -484.2979   ZZ=           -483.3428
   XY=              0.3198   XZ=             -0.2940   YZ=             -0.6301

 Normal termination of Gaussian 09 at Sat Jun 15 00:32:16 2019.
