 Gaussian 09, Revision D.01,
 Gaussian 09:  EM64L-G09RevD.01 24-Apr-2013

 ----------------------------------------------------------------------
 #PBEPBE/gen scf=(maxcycle=500,conver=3) NMR=GIAO Scrf=(solvent=Dichlor
 omethane)
 ----------------------------------------------------------------------

 ------------
 estrutura 92
 ------------
 Symbolic Z-matrix:
 Charge =  0 Multiplicity = 1

                         Standard orientation:
 ---------------------------------------------------------------------
 Center     Atomic      Atomic             Coordinates (Angstroms)
 Number     Number       Type             X           Y           Z
 ---------------------------------------------------------------------
      1         78           0        0.191516   -0.737196   -0.302185
      2         15           0       -2.277140   -0.281700   -0.007997
      3         15           0        1.132724    1.320722    0.012599
      4          6           0       -2.788416   -0.996842    1.619418
      5          6           0       -4.097271   -0.828736    2.115057
      6          6           0       -1.858472   -1.709756    2.393919
      7          6           0       -4.468088   -1.382547    3.342406
      8          1           0       -4.832595   -0.255545    1.546654
      9          6           0       -2.231202   -2.259156    3.625552
     10          1           0       -0.832548   -1.826828    2.038306
     11          6           0       -3.536330   -2.102934    4.099463
     12          1           0       -5.488585   -1.247544    3.710299
     13          1           0       -1.493623   -2.808710    4.215896
     14          1           0       -3.827241   -2.534009    5.060671
     15          6           0       -3.268738   -1.172421   -1.293363
     16          6           0       -2.922664   -0.979181   -2.643843
     17          6           0       -4.330608   -2.038613   -0.988518
     18          6           0       -3.644067   -1.603901   -3.663945
     19          1           0       -2.071144   -0.347428   -2.907386
     20          6           0       -5.043505   -2.675679   -2.010671
     21          1           0       -4.605810   -2.234291    0.048531
     22          6           0       -4.709571   -2.454605   -3.349730
     23          1           0       -3.362602   -1.435267   -4.706873
     24          1           0       -5.863733   -3.350969   -1.753219
     25          1           0       -5.269461   -2.951474   -4.146154
     26          6           0       -3.077972    1.391490    0.061037
     27          6           0       -2.956752    2.152522    1.239471
     28          6           0       -3.781287    1.939369   -1.024722
     29          6           0       -3.527207    3.424481    1.329117
     30          1           0       -2.426269    1.746598    2.104615
     31          6           0       -4.349386    3.214753   -0.933176
     32          1           0       -3.901304    1.371968   -1.947829
     33          6           0       -4.224731    3.961899    0.242112
     34          1           0       -3.429064    3.995583    2.257792
     35          1           0       -4.895184    3.621409   -1.785748
     36          1           0       -4.672161    4.956215    0.313982
     37          6           0        2.887393    1.537251   -0.539689
     38          6           0        3.838069    2.246509    0.206739
     39          6           0        3.232420    1.062228   -1.816829
     40          6           0        5.119392    2.465289   -0.312111
     41          1           0        3.591795    2.625390    1.199711
     42          6           0        4.510317    1.285150   -2.333663
     43          1           0        2.497398    0.512296   -2.412260
     44          6           0        5.459088    1.986934   -1.580296
     45          1           0        5.854912    3.011621    0.283502
     46          1           0        4.766209    0.909864   -3.328916
     47          1           0        6.460880    2.158605   -1.982447
     48          6           0        1.088274    1.878254    1.767481
     49          6           0        0.263815    2.924004    2.212874
     50          6           0        1.853280    1.162263    2.709935
     51          6           0        0.213007    3.255775    3.571877
     52          1           0       -0.351290    3.483443    1.508135
     53          6           0        1.800780    1.500989    4.063898
     54          1           0        2.505677    0.346785    2.387011
     55          6           0        0.980332    2.547636    4.499989
     56          1           0       -0.432981    4.073191    3.901787
     57          1           0        2.404815    0.940824    4.782385
     58          1           0        0.939454    2.808499    5.560571
     59          6           0        0.387939    2.656162   -1.028688
     60          6           0        0.746675    4.004559   -0.841315
     61          6           0       -0.399804    2.312779   -2.135830
     62          6           0        0.294196    4.985110   -1.726106
     63          1           0        1.396020    4.296220   -0.013462
     64          6           0       -0.839930    3.293982   -3.030435
     65          1           0       -0.653292    1.265443   -2.306212
     66          6           0       -0.500090    4.632464   -2.823666
     67          1           0        0.574965    6.028798   -1.564639
     68          1           0       -1.449516    3.007096   -3.890540
     69          1           0       -0.845022    5.400982   -3.519853
     70         50           0        2.388562   -2.226024   -0.133436
     71         17           0       -0.450195   -3.013906   -0.971067
     72          6           0        3.388581   -2.834658   -1.974558
     73          1           0        3.758258   -1.955162   -2.519022
     74          1           0        4.233167   -3.493467   -1.720385
     75          1           0        2.666600   -3.382201   -2.600706
     76          6           0        2.180865   -3.944662    1.194588
     77          1           0        1.505214   -4.675871    0.728908
     78          1           0        3.174657   -4.387546    1.355209
     79          1           0        1.763458   -3.623116    2.161038
     80         17           0        4.290187   -1.213340    1.127016
 ---------------------------------------------------------------------

 SCF Done:  E(RPBE-PBE) =  -26162.2269799     A.U. after    8 cycles

      1  Pt   Isotropic =  3017.6907   Anisotropy =  1911.5628

      2  P    Isotropic =   274.2092   Anisotropy =    46.5836

      3  P    Isotropic =   247.3711   Anisotropy =   135.1032

      4  C    Isotropic =    47.5036   Anisotropy =   183.9694

      5  C    Isotropic =    20.0584   Anisotropy =   145.2755

      6  C    Isotropic =    43.6964   Anisotropy =   173.8371

      7  C    Isotropic =    20.5943   Anisotropy =   161.9495

      8  H    Isotropic =    23.4452   Anisotropy =    11.3185

      9  C    Isotropic =    54.1470   Anisotropy =   195.0544

     10  H    Isotropic =    21.5170   Anisotropy =    13.8964

     11  C    Isotropic =    40.0303   Anisotropy =   235.0945

     12  H    Isotropic =    18.0456   Anisotropy =    13.0550

     13  H    Isotropic =    22.4183   Anisotropy =     8.8627

     14  H    Isotropic =    19.2289   Anisotropy =    10.6480

     15  C    Isotropic =    53.1592   Anisotropy =   250.4310

     16  C    Isotropic =    48.7909   Anisotropy =   210.2592

     17  C    Isotropic =    43.1798   Anisotropy =   201.7598

     18  C    Isotropic =    40.0931   Anisotropy =   179.0284

     19  H    Isotropic =    22.8102   Anisotropy =    12.5998

     20  C    Isotropic =    22.2177   Anisotropy =   156.5926

     21  H    Isotropic =    23.9488   Anisotropy =    15.2662

     22  C    Isotropic =    46.4585   Anisotropy =   265.7463

     23  H    Isotropic =    21.4806   Anisotropy =     9.7269

     24  H    Isotropic =    19.8527   Anisotropy =    12.2726

     25  H    Isotropic =    19.4259   Anisotropy =     9.9822

     26  C    Isotropic =    -4.1654   Anisotropy =   179.6439

     27  C    Isotropic =    -6.4471   Anisotropy =    94.2135

     28  C    Isotropic =    36.9040   Anisotropy =   177.3388

     29  C    Isotropic =    51.0770   Anisotropy =   189.1877

     30  H    Isotropic =    25.1529   Anisotropy =    11.3490

     31  C    Isotropic =   101.2946   Anisotropy =   251.2597

     32  H    Isotropic =    25.7899   Anisotropy =    12.8870

     33  C    Isotropic =    66.4039   Anisotropy =   132.7429

     34  H    Isotropic =    26.1101   Anisotropy =     5.2694

     35  H    Isotropic =    30.0120   Anisotropy =    10.7066

     36  H    Isotropic =    29.3920   Anisotropy =     9.6703

     37  C    Isotropic =    85.2961   Anisotropy =   267.0925

     38  C    Isotropic =    43.6917   Anisotropy =   197.0086

     39  C    Isotropic =   112.6843   Anisotropy =   284.7769

     40  C    Isotropic =   -31.6030   Anisotropy =    84.4066

     41  H    Isotropic =    21.3588   Anisotropy =     9.9718

     42  C    Isotropic =    29.7492   Anisotropy =   115.1695

     43  H    Isotropic =    21.8370   Anisotropy =    12.5837

     44  C    Isotropic =    13.7207   Anisotropy =   205.0193

     45  H    Isotropic =    15.1097   Anisotropy =    16.7596

     46  H    Isotropic =    20.9585   Anisotropy =     9.3701

     47  H    Isotropic =    15.5827   Anisotropy =    14.3109

     48  C    Isotropic =    68.1107   Anisotropy =   238.1639

     49  C    Isotropic =    -3.7707   Anisotropy =   152.8110

     50  C    Isotropic =   113.1146   Anisotropy =   304.9909

     51  C    Isotropic =    10.1074   Anisotropy =    92.1741

     52  H    Isotropic =    22.0682   Anisotropy =    14.1663

     53  C    Isotropic =   130.7425   Anisotropy =   213.3331

     54  H    Isotropic =    22.4788   Anisotropy =    13.3807

     55  C    Isotropic =    -4.4848   Anisotropy =   137.8602

     56  H    Isotropic =    24.2168   Anisotropy =     7.2787

     57  H    Isotropic =    32.7841   Anisotropy =    23.4315

     58  H    Isotropic =    32.4121   Anisotropy =    21.4222

     59  C    Isotropic =    -5.2883   Anisotropy =   145.6623

     60  C    Isotropic =   -24.7730   Anisotropy =    80.2186

     61  C    Isotropic =    28.6783   Anisotropy =   169.4297

     62  C    Isotropic =    56.9701   Anisotropy =   217.6672

     63  H    Isotropic =    23.6389   Anisotropy =    15.6702

     64  C    Isotropic =    93.3234   Anisotropy =   245.3425

     65  H    Isotropic =    22.6816   Anisotropy =    14.2320

     66  C    Isotropic =    52.0829   Anisotropy =   125.8694

     67  H    Isotropic =    26.1527   Anisotropy =     5.1774

     68  H    Isotropic =    27.7599   Anisotropy =     6.6870

     69  H    Isotropic =    28.8518   Anisotropy =     9.1677

     70  Sn   Isotropic =  1914.7922   Anisotropy =   392.0100

     71  Cl   Isotropic =   959.0283   Anisotropy =   488.5373

     72  C    Isotropic =   177.5589   Anisotropy =    28.0367

     73  H    Isotropic =    31.1683   Anisotropy =     8.9931

     74  H    Isotropic =    31.5886   Anisotropy =    14.6956

     75  H    Isotropic =    30.9548   Anisotropy =    12.0439

     76  C    Isotropic =   172.1849   Anisotropy =    30.3364

     77  H    Isotropic =    30.8192   Anisotropy =    11.5553

     78  H    Isotropic =    31.3511   Anisotropy =    14.2920

     79  H    Isotropic =    30.6344   Anisotropy =    10.0930

     80  Cl   Isotropic =   909.0197   Anisotropy =   129.4897

 The electronic state is 1-A.
 Alpha  occ. eigenvalues -- ********************-427.52991-414.86027-414.85994
 Alpha  occ. eigenvalues -- -414.85756-149.61191-141.89031-141.88927-141.88903
 Alpha  occ. eigenvalues -- -100.53903-100.52949 -99.91040 -92.06833 -92.06816
 Alpha  occ. eigenvalues --  -92.06452 -79.02739 -79.02641 -79.02443 -79.02432
 Alpha  occ. eigenvalues --  -79.02369 -76.31747 -76.29710 -28.77712 -25.12504
 Alpha  occ. eigenvalues --  -25.12176 -25.12100 -20.82515 -17.67279 -17.67227
 Alpha  occ. eigenvalues --  -17.67178 -17.66955 -17.66952 -17.39236 -17.39201
 Alpha  occ. eigenvalues --  -17.38426 -11.57656 -11.57302 -11.56889 -11.56866
 Alpha  occ. eigenvalues --  -11.56734  -9.92634  -9.92454  -9.92361  -9.92273
 Alpha  occ. eigenvalues --   -9.91927  -9.91603  -9.91562  -9.91550  -9.91098
 Alpha  occ. eigenvalues --   -9.91082  -9.91072  -9.91041  -9.90913  -9.90900
 Alpha  occ. eigenvalues --   -9.90868  -9.90851  -9.90751  -9.90709  -9.90661
 Alpha  occ. eigenvalues --   -9.90633  -9.90622  -9.90608  -9.90571  -9.90568
 Alpha  occ. eigenvalues --   -9.90415  -9.90377  -9.90366  -9.90325  -9.90315
 Alpha  occ. eigenvalues --   -9.90268  -9.90219  -9.90131  -9.90128  -9.90073
 Alpha  occ. eigenvalues --   -9.89831  -9.89598  -9.87197  -9.86620  -9.11704
 Alpha  occ. eigenvalues --   -9.10867  -6.95437  -6.94947  -6.94903  -6.94585
 Alpha  occ. eigenvalues --   -6.94090  -6.94065  -6.34768  -6.32905  -4.57311
 Alpha  occ. eigenvalues --   -4.57282  -4.57024  -4.55462  -4.55443  -4.55067
 Alpha  occ. eigenvalues --   -4.46652  -3.20412  -3.19836  -3.19663  -3.12531
 Alpha  occ. eigenvalues --   -3.12518  -3.12098  -3.11855  -3.11704  -3.11683
 Alpha  occ. eigenvalues --   -3.11620  -2.85639  -1.80833  -1.80255  -1.78156
 Alpha  occ. eigenvalues --   -0.99429  -0.99163  -0.99010  -0.98760  -0.98612
 Alpha  occ. eigenvalues --   -0.79964  -0.79603  -0.79203  -0.78823  -0.78800
 Alpha  occ. eigenvalues --   -0.78685  -0.71905  -0.71399  -0.69405  -0.69073
 Alpha  occ. eigenvalues --   -0.69043  -0.68841  -0.68743  -0.68711  -0.68530
 Alpha  occ. eigenvalues --   -0.68466  -0.68380  -0.68274  -0.68146  -0.68122
 Alpha  occ. eigenvalues --   -0.61146  -0.60962  -0.60337  -0.59993  -0.56173
 Alpha  occ. eigenvalues --   -0.56037  -0.55957  -0.55557  -0.55322  -0.55180
 Alpha  occ. eigenvalues --   -0.54954  -0.54681  -0.54620  -0.54550  -0.51992
 Alpha  occ. eigenvalues --   -0.51569  -0.47794  -0.47601  -0.47435  -0.47385
 Alpha  occ. eigenvalues --   -0.45894  -0.45517  -0.42267  -0.42087  -0.41957
 Alpha  occ. eigenvalues --   -0.41712  -0.41492  -0.41317  -0.41065  -0.40905
 Alpha  occ. eigenvalues --   -0.40838  -0.40649  -0.40473  -0.40188  -0.39147
 Alpha  occ. eigenvalues --   -0.38722  -0.38622  -0.38383  -0.38333  -0.38197
 Alpha  occ. eigenvalues --   -0.38092  -0.37989  -0.37687  -0.37193  -0.36849
 Alpha  occ. eigenvalues --   -0.36265  -0.35533  -0.35438  -0.35107  -0.34798
 Alpha  occ. eigenvalues --   -0.34459  -0.34378  -0.34222  -0.34040  -0.33799
 Alpha  occ. eigenvalues --   -0.33561  -0.33345  -0.32602  -0.31679  -0.31485
 Alpha  occ. eigenvalues --   -0.31390  -0.31326  -0.31093  -0.30917  -0.30835
 Alpha  occ. eigenvalues --   -0.30449  -0.30334  -0.29956  -0.29582  -0.29483
 Alpha  occ. eigenvalues --   -0.28108  -0.27245  -0.27144  -0.26561  -0.25956
 Alpha  occ. eigenvalues --   -0.25519  -0.25372  -0.24978  -0.24697  -0.24525
 Alpha  occ. eigenvalues --   -0.24407  -0.24303  -0.24128  -0.24038  -0.23818
 Alpha  occ. eigenvalues --   -0.23565  -0.23461  -0.23177  -0.22862  -0.22713
 Alpha  occ. eigenvalues --   -0.22396  -0.21039  -0.19135
 Alpha virt. eigenvalues --   -0.09945  -0.07724  -0.07215  -0.06741  -0.06416
 Alpha virt. eigenvalues --   -0.06213  -0.05892  -0.05703  -0.05516  -0.05159
 Alpha virt. eigenvalues --   -0.05023  -0.04594  -0.04470  -0.03104  -0.01989

 Mulliken charges:
               1
     1  Pt   0.350882
     2  P    1.096539
     3  P    1.281588
     4  C   -0.952558
     5  C    0.463678
     6  C    0.258188
     7  C    0.056768
     8  H    0.097214
     9  C   -0.320961
    10  H    0.093889
    11  C   -0.588909
    12  H    0.141754
    13  H    0.141699
    14  H    0.155378
    15  C   -0.701345
    16  C    0.545509
    17  C    0.137719
    18  C   -0.003313
    19  H    0.067129
    20  C   -0.233408
    21  H    0.100880
    22  C   -0.557668
    23  H    0.142637
    24  H    0.143796
    25  H    0.154327
    26  C   -0.940014
    27  C    0.605130
    28  C    0.181499
    29  C   -0.064587
    30  H    0.073538
    31  C   -0.216474
    32  H    0.080253
    33  C   -0.521176
    34  H    0.131562
    35  H    0.134322
    36  H    0.150889
    37  C   -1.194791
    38  C    0.459344
    39  C    0.413868
    40  C   -0.102307
    41  H    0.083347
    42  C   -0.079449
    43  H    0.095950
    44  C   -0.575847
    45  H    0.142515
    46  H    0.138247
    47  H    0.148351
    48  C   -0.674945
    49  C    0.302330
    50  C    0.330633
    51  C   -0.197338
    52  H    0.075117
    53  C   -0.180650
    54  H    0.074900
    55  C   -0.601240
    56  H    0.138906
    57  H    0.149818
    58  H    0.156285
    59  C   -0.778808
    60  C    0.239967
    61  C    0.424171
    62  C   -0.027496
    63  H    0.101649
    64  C   -0.201285
    65  H    0.055777
    66  C   -0.596216
    67  H    0.143894
    68  H    0.123780
    69  H    0.150704
    70  Sn   0.410938
    71  Cl  -0.430858
    72  C   -0.385491
    73  H    0.100707
    74  H    0.121142
    75  H    0.115503
    76  C   -0.401234
    77  H    0.125412
    78  H    0.129268
    79  H    0.099254
    80  Cl  -0.310179
 Sum of Mulliken charges =   0.00000

 Dipole moment (field-independent basis, Debye):
    X=             -7.3892    Y=              9.5224    Z=              0.2962  Tot=             12.0567
 Quadrupole moment (field-independent basis, Debye-Ang):
   XX=           -320.9204   YY=           -317.6353   ZZ=           -296.2084
   XY=             10.4254   XZ=             -9.1116   YZ=             -1.3193

 1\1\GINC-NEQC27\SP\RPBEPBE\Gen\C38H36Cl2P2Pt1Sn1\GUEST\12-Dec-2019\0\\
 #PBEPBE/gen scf=(maxcycle=500,conver=3) NMR=GIAO Scrf=(solvent=Dichlor
 omethane)\\estrutura 92\\0,1\Pt,0,0.191516,-0.737196,-0.302185\P,0,-2.
 27714,-0.2817,-0.007997\P,0,1.132724,1.320722,0.012599\C,0,-2.788416,-
 0.996842,1.619418\C,0,-4.097271,-0.828736,2.115057\C,0,-1.858472,-1.70
 9756,2.393919\C,0,-4.468088,-1.382547,3.342406\H,0,-4.832595,-0.255545
 ,1.546654\C,0,-2.231202,-2.259156,3.625552\H,0,-0.832548,-1.826828,2.0
 38306\C,0,-3.53633,-2.102934,4.099463\H,0,-5.488585,-1.247544,3.710299

 Normal termination of Gaussian 09 at Thu Dec 12 11:42:16 2019.
