 Gaussian 09, Revision D.01,
 Gaussian 09:  EM64L-G09RevD.01 24-Apr-2013

 ----------------------------------------------------------------------
 #PBEPBE/gen scf=(maxcycle=500,conver=4) NMR=GIAO Scrf=(solvent=Dichlor
 omethane)
 ----------------------------------------------------------------------

 ------------
 estrutura 70
 ------------
 Symbolic Z-matrix:
 Charge =  0 Multiplicity = 1

                         Standard orientation:
 ---------------------------------------------------------------------
 Center     Atomic      Atomic             Coordinates (Angstroms)
 Number     Number       Type             X           Y           Z
 ---------------------------------------------------------------------
      1         78           0       -0.315827   -0.044037   -0.280585
      2         15           0       -0.094617    2.361509   -0.223305
      3         15           0       -0.648679   -2.393844    0.022448
      4          6           0       -0.035438    2.827141    1.573164
      5          1           0        0.708588    2.147490    2.019191
      6          1           0       -1.012850    2.526520    1.985945
      7          6           0        0.294041    4.276584    1.941428
      8          1           0       -0.402018    5.002941    1.489836
      9          1           0        0.237173    4.398291    3.035824
     10          1           0        1.317895    4.542982    1.639849
     11          6           0        1.498155    2.984135   -0.974879
     12          1           0        1.722418    2.313610   -1.817895
     13          6           0       -1.411572    3.433143   -0.983868
     14          1           0       -0.943037    4.405595   -1.180234
     15          1           0       -1.637093    3.000612   -1.971407
     16          6           0       -2.691473    3.645312   -0.174597
     17          1           0       -3.413569    4.221924   -0.771123
     18          1           0       -3.172283    2.704181    0.110590
     19          1           0       -2.498432    4.216792    0.741730
     20          6           0        0.165429   -3.441456   -1.271705
     21          1           0       -0.006337   -4.497358   -1.004337
     22          1           0        1.251028   -3.269080   -1.172910
     23          6           0       -0.310078   -3.149848   -2.698907
     24          1           0       -1.400537   -3.292485   -2.807441
     25          1           0       -0.073780   -2.116391   -2.996823
     26          1           0        0.180023   -3.828362   -3.414737
     27          6           0       -2.412262   -2.978742    0.083804
     28          1           0       -2.837315   -2.522359    0.993067
     29          1           0       -2.951502   -2.518457   -0.757253
     30          6           0       -2.629658   -4.494633    0.087518
     31          1           0       -3.700416   -4.711548    0.244132
     32          1           0       -2.336813   -4.959376   -0.871083
     33          1           0       -2.072978   -4.999079    0.894864
     34          6           0        0.062208   -3.034978    1.611190
     35          1           0       -0.265245   -4.082204    1.713335
     36          1           0        1.152922   -3.065856    1.473242
     37          6           0       -0.306878   -2.228164    2.855893
     38          1           0        0.210528   -2.634994    3.734791
     39          1           0       -0.012282   -1.175041    2.749856
     40          1           0       -1.387943   -2.257066    3.067305
     41         50           0        2.379131   -0.301693    0.149797
     42         17           0        3.668102    0.159438   -1.894211
     43         17           0        3.572150    1.187321    1.722082
     44         17           0        3.603506   -2.362335    0.712231
     45          6           0        1.588890    4.441805   -1.436850
     46          1           0        2.628084    4.657420   -1.731933
     47          1           0        0.955668    4.637408   -2.314908
     48          1           0        1.315250    5.160374   -0.651106
     49          1           0        2.263395    2.776898   -0.211868
     50          6           0       -2.215486    0.101674   -1.192486
     51          1           0       -2.158756    0.954694   -1.884495
     52          1           0       -2.289734   -0.781625   -1.847202
     53          6           0       -3.491917    0.220034   -0.385780
     54          6           0       -4.703739    0.363578   -1.094306
     55          6           0       -3.557222    0.216627    1.018366
     56          6           0       -5.924779    0.504595   -0.433133
     57          1           0       -4.681234    0.374612   -2.188068
     58          6           0       -4.781590    0.352562    1.687307
     59          1           0       -2.634110    0.115990    1.597153
     60          6           0       -5.970167    0.500019    0.966857
     61          1           0       -6.843792    0.623143   -1.013087
     62          1           0       -4.802245    0.349117    2.781340
     63          1           0       -6.923949    0.613709    1.488648
 ---------------------------------------------------------------------

 SCF Done:  E(RPBE-PBE) =  -25899.3591112     A.U. after    9 cycles

      1  Pt   Isotropic =  3252.5320   Anisotropy =   852.4131

      2  P    Isotropic =   288.0033   Anisotropy =    36.8266

      3  P    Isotropic =   271.7288   Anisotropy =    62.8193

      4  C    Isotropic =   154.6271   Anisotropy =    34.6509

      5  H    Isotropic =    28.7809   Anisotropy =     7.2883

      6  H    Isotropic =    29.1191   Anisotropy =     5.6779

      7  C    Isotropic =   171.3389   Anisotropy =    21.3336

      8  H    Isotropic =    30.3601   Anisotropy =     8.6905

      9  H    Isotropic =    30.0453   Anisotropy =    13.1564

     10  H    Isotropic =    30.1036   Anisotropy =     7.6462

     11  C    Isotropic =   149.3444   Anisotropy =    28.6605

     12  H    Isotropic =    28.5393   Anisotropy =     8.2312

     13  C    Isotropic =   167.6810   Anisotropy =    27.3645

     14  H    Isotropic =    29.0169   Anisotropy =    10.0058

     15  H    Isotropic =    29.5640   Anisotropy =     7.2598

     16  C    Isotropic =   174.9373   Anisotropy =    15.8628

     17  H    Isotropic =    30.7219   Anisotropy =    11.8802

     18  H    Isotropic =    31.3250   Anisotropy =    15.7792

     19  H    Isotropic =    31.0482   Anisotropy =     8.3624

     20  C    Isotropic =   155.4686   Anisotropy =    21.5733

     21  H    Isotropic =    29.0987   Anisotropy =     9.4713

     22  H    Isotropic =    29.3914   Anisotropy =     8.0439

     23  C    Isotropic =   170.8894   Anisotropy =    20.3158

     24  H    Isotropic =    30.4027   Anisotropy =     8.8339

     25  H    Isotropic =    30.4197   Anisotropy =     4.8911

     26  H    Isotropic =    29.9841   Anisotropy =    13.9174

     27  C    Isotropic =   166.1450   Anisotropy =    28.1639

     28  H    Isotropic =    29.9432   Anisotropy =     8.1182

     29  H    Isotropic =    29.4988   Anisotropy =     8.3082

     30  C    Isotropic =   176.0496   Anisotropy =    18.1518

     31  H    Isotropic =    30.3671   Anisotropy =    12.5768

     32  H    Isotropic =    30.5742   Anisotropy =    10.0649

     33  H    Isotropic =    30.4970   Anisotropy =     9.5066

     34  C    Isotropic =   157.7809   Anisotropy =    21.6040

     35  H    Isotropic =    29.1520   Anisotropy =     9.9948

     36  H    Isotropic =    28.6345   Anisotropy =    11.4855

     37  C    Isotropic =   171.2530   Anisotropy =    20.5126

     38  H    Isotropic =    30.0042   Anisotropy =    13.3540

     39  H    Isotropic =    30.2965   Anisotropy =     6.7535

     40  H    Isotropic =    30.3028   Anisotropy =     9.7952

     41  Sn   Isotropic =  2172.5536   Anisotropy =   825.4315

     42  Cl   Isotropic =   755.7958   Anisotropy =   312.1686

     43  Cl   Isotropic =   744.3805   Anisotropy =   326.1794

     44  Cl   Isotropic =   746.2339   Anisotropy =   311.1194

     45  C    Isotropic =   170.4493   Anisotropy =    21.0910

     46  H    Isotropic =    29.9234   Anisotropy =    12.3700

     47  H    Isotropic =    30.2725   Anisotropy =     9.6282

     48  H    Isotropic =    30.4583   Anisotropy =     7.9338

     49  H    Isotropic =    28.4621   Anisotropy =     9.5460

     50  C    Isotropic =   131.1861   Anisotropy =    57.7392

     51  H    Isotropic =    27.6281   Anisotropy =    12.3410

     52  H    Isotropic =    27.2878   Anisotropy =    13.0125

     53  C    Isotropic =    42.6026   Anisotropy =   209.9336

     54  C    Isotropic =    72.7329   Anisotropy =   199.6494

     55  C    Isotropic =    44.4028   Anisotropy =   152.3055

     56  C    Isotropic =    68.7805   Anisotropy =   187.3058

     57  H    Isotropic =    24.4469   Anisotropy =    10.2151

     58  C    Isotropic =    44.3387   Anisotropy =   163.3487

     59  H    Isotropic =    23.4945   Anisotropy =    14.0394

     60  C    Isotropic =    69.6315   Anisotropy =   206.0474

     61  H    Isotropic =    26.4303   Anisotropy =     2.3271

     62  H    Isotropic =    23.6564   Anisotropy =     8.3195

     63  H    Isotropic =    24.9829   Anisotropy =     2.1439

 The electronic state is 1-A.
 Alpha  occ. eigenvalues -- ********************-427.52954-414.85982-414.85971
 Alpha  occ. eigenvalues -- -414.85700-149.65055-141.92873-141.92868-141.92800
 Alpha  occ. eigenvalues -- -100.55370-100.55213-100.55173 -99.90991 -92.06816
 Alpha  occ. eigenvalues --  -92.06746 -92.06391 -79.02715 -79.02596 -79.02404
 Alpha  occ. eigenvalues --  -79.02369 -79.02318 -76.29596 -76.29488 -28.81377
 Alpha  occ. eigenvalues --  -25.16011 -25.16003 -25.15785 -20.82472 -17.70911
 Alpha  occ. eigenvalues --  -17.70910 -17.70763 -17.70759 -17.70716 -17.39246
 Alpha  occ. eigenvalues --  -17.39123 -17.38367 -11.57665 -11.57241 -11.56854
 Alpha  occ. eigenvalues --  -11.56790 -11.56687  -9.90889  -9.90781  -9.90696
 Alpha  occ. eigenvalues --   -9.90668  -9.90643  -9.90496  -9.90455  -9.89831
 Alpha  occ. eigenvalues --   -9.89619  -9.89600  -9.89577  -9.89354  -9.89241
 Alpha  occ. eigenvalues --   -9.89148  -9.89038  -9.88982  -9.88870  -9.88843
 Alpha  occ. eigenvalues --   -9.88488  -9.13205  -9.13040  -9.13003  -6.96962
 Alpha  occ. eigenvalues --   -6.96786  -6.96761  -6.96415  -6.96404  -6.96261
 Alpha  occ. eigenvalues --   -6.96242  -6.96217  -6.96198  -6.32677  -6.32555
 Alpha  occ. eigenvalues --   -4.55204  -4.55191  -4.55090  -4.55081  -4.54936
 Alpha  occ. eigenvalues --   -4.54795  -4.50009  -3.23449  -3.23423  -3.23032
 Alpha  occ. eigenvalues --   -3.12513  -3.12492  -3.12071  -3.11778  -3.11657
 Alpha  occ. eigenvalues --   -3.11610  -3.11564  -2.85480  -1.80415  -1.80296
 Alpha  occ. eigenvalues --   -1.77940  -1.02456  -1.02449  -1.02109  -1.02059
 Alpha  occ. eigenvalues --   -1.01955  -0.78259  -0.73513  -0.73299  -0.71787
 Alpha  occ. eigenvalues --   -0.70283  -0.70197  -0.69874  -0.69569  -0.69208
 Alpha  occ. eigenvalues --   -0.69141  -0.69065  -0.67664  -0.61347  -0.61030
 Alpha  occ. eigenvalues --   -0.60794  -0.57205  -0.56839  -0.56391  -0.55585
 Alpha  occ. eigenvalues --   -0.54557  -0.52385  -0.49074  -0.48257  -0.45992
 Alpha  occ. eigenvalues --   -0.43131  -0.42708  -0.42411  -0.42163  -0.41371
 Alpha  occ. eigenvalues --   -0.40821  -0.40781  -0.40434  -0.40261  -0.38973
 Alpha  occ. eigenvalues --   -0.38304  -0.37864  -0.37611  -0.37339  -0.37274
 Alpha  occ. eigenvalues --   -0.37191  -0.36668  -0.36538  -0.36023  -0.35090
 Alpha  occ. eigenvalues --   -0.34850  -0.34114  -0.33814  -0.33443  -0.33373
 Alpha  occ. eigenvalues --   -0.32939  -0.32577  -0.32481  -0.32021  -0.31890
 Alpha  occ. eigenvalues --   -0.31628  -0.31460  -0.31028  -0.30762  -0.30636
 Alpha  occ. eigenvalues --   -0.30282  -0.29794  -0.29163  -0.28970  -0.28626
 Alpha  occ. eigenvalues --   -0.28273  -0.27868  -0.27298  -0.26971  -0.26167
 Alpha  occ. eigenvalues --   -0.26007  -0.25593  -0.25362  -0.25254  -0.24849
 Alpha  occ. eigenvalues --   -0.23325  -0.22706  -0.21748  -0.21640  -0.19900
 Alpha virt. eigenvalues --   -0.08406  -0.06171  -0.04979  -0.04602  -0.04448
 Alpha virt. eigenvalues --   -0.03003  -0.02301  -0.01693  -0.01584  -0.00795
 Alpha virt. eigenvalues --   -0.00363   0.00068   0.00155   0.00655   0.01288

 Mulliken charges:
               1
     1  Pt   0.332206
     2  P    0.065534
     3  P    0.206384
     4  C   -0.325348
     5  H    0.082345
     6  H    0.084737
     7  C   -0.179258
     8  H    0.110089
     9  H    0.135936
    10  H    0.114048
    11  C   -0.310409
    12  H    0.098756
    13  C   -0.327976
    14  H    0.105666
    15  H    0.089612
    16  C   -0.108526
    17  H    0.116157
    18  H    0.054219
    19  H    0.093698
    20  C   -0.362572
    21  H    0.106490
    22  H    0.077635
    23  C   -0.110021
    24  H    0.103581
    25  H    0.080879
    26  H    0.136671
    27  C   -0.412377
    28  H    0.085419
    29  H    0.090445
    30  C   -0.186057
    31  H    0.138195
    32  H    0.117437
    33  H    0.113109
    34  C   -0.454684
    35  H    0.103042
    36  H    0.086659
    37  C   -0.072676
    38  H    0.128369
    39  H    0.059657
    40  H    0.097793
    41  Sn   0.344476
    42  Cl  -0.300558
    43  Cl  -0.300079
    44  Cl  -0.229029
    45  C   -0.189622
    46  H    0.131758
    47  H    0.118520
    48  H    0.111495
    49  H    0.077041
    50  C   -0.106477
    51  H    0.061487
    52  H    0.069855
    53  C   -0.392062
    54  C   -0.029141
    55  C    0.330144
    56  C   -0.187242
    57  H    0.120965
    58  C   -0.046764
    59  H    0.049558
    60  C   -0.451157
    61  H    0.153052
    62  H    0.138965
    63  H    0.159953
 Sum of Mulliken charges =   0.00000

 Dipole moment (field-independent basis, Debye):
    X=            -13.7252    Y=              1.1047    Z=             -0.5733  Tot=             13.7815
 Quadrupole moment (field-independent basis, Debye-Ang):
   XX=           -287.0441   YY=           -214.0914   ZZ=           -240.6622
   XY=              9.2187   XZ=             -2.3825   YZ=             -1.6823

 Normal termination of Gaussian 09 at Sun Aug 25 01:04:19 2019.
