 Gaussian 09, Revision D.01,
 Gaussian 09:  EM64L-G09RevD.01 24-Apr-2013

 ----------------------------------------------------------------------
 #PBEPBE/gen scf=(maxcycle=500,conver=4) NMR=GIAO Scrf=(solvent=Dichlor
 omethane)
 ----------------------------------------------------------------------

 ------------
 estrutura 71
 ------------
 Symbolic Z-matrix:
 Charge =  0 Multiplicity = 1

                         Standard orientation:
 ---------------------------------------------------------------------
 Center     Atomic      Atomic             Coordinates (Angstroms)
 Number     Number       Type             X           Y           Z
 ---------------------------------------------------------------------
      1         78           0        0.344602   -0.037890   -0.391853
      2         15           0        0.136589    2.356081   -0.463763
      3         15           0        0.508586   -2.424638   -0.578086
      4          6           0       -0.989140    2.818173   -1.864241
      5          1           0       -1.906523    2.228894   -1.713946
      6          1           0       -0.507204    2.417557   -2.771517
      7          6           0       -1.341719    4.298159   -2.036020
      8          1           0       -0.453244    4.934146   -2.167992
      9          1           0       -1.972178    4.425136   -2.930590
     10          1           0       -1.913772    4.682652   -1.178463
     11          6           0       -0.639297    3.019823    1.097174
     12          1           0       -0.322632    2.343643    1.906158
     13          6           0        1.673993    3.364293   -0.725174
     14          1           0        1.428805    4.401445   -0.449961
     15          1           0        2.409324    3.012018    0.016239
     16          6           0        2.265137    3.332251   -2.139097
     17          1           0        3.199880    3.914734   -2.157563
     18          1           0        2.499104    2.312371   -2.472118
     19          1           0        1.584710    3.786426   -2.875114
     20          6           0       -0.100124   -3.402916    0.872039
     21          1           0        0.053580   -4.467695    0.630530
     22          1           0       -1.191331   -3.252391    0.911069
     23          6           0        0.547333   -3.044614    2.212143
     24          1           0        1.643141   -3.154747    2.187785
     25          1           0        0.311607   -2.010460    2.506548
     26          1           0        0.165027   -3.709531    3.002374
     27          6           0        2.224614   -3.052353   -0.907390
     28          1           0        2.554540   -2.548145   -1.828086
     29          1           0        2.862584   -2.648644   -0.104560
     30          6           0        2.397951   -4.568535   -1.022543
     31          1           0        3.445817   -4.802129   -1.271799
     32          1           0        2.163184   -5.088187   -0.081152
     33          1           0        1.770302   -5.001800   -1.816537
     34          6           0       -0.523426   -3.051161   -1.981385
     35          1           0       -0.360925   -4.139981   -2.052657
     36          1           0       -1.571020   -2.910220   -1.669415
     37          6           0       -0.261502   -2.366653   -3.326152
     38          1           0       -0.916925   -2.794090   -4.100880
     39          1           0       -0.464873   -1.285349   -3.269904
     40          1           0        0.778913   -2.497070   -3.663906
     41         50           0       -2.309986   -0.256817    0.423591
     42         17           0       -2.361685   -0.219332    2.887346
     43         17           0       -4.036300    1.463137   -0.010704
     44         17           0       -3.741019   -2.242501    0.068102
     45          6           0       -0.371973    4.473754    1.497688
     46          1           0       -0.958582    4.714363    2.398794
     47          1           0        0.686963    4.645412    1.742251
     48          1           0       -0.662833    5.190685    0.715749
     49          1           0       -1.720777    2.849796    0.964152
     50          6           0        2.356672    0.094238   -0.709536
     51          8           0        2.815924    0.014650   -1.831102
     52          6           0        3.273639    0.257903    0.476213
     53          6           0        2.796724    0.385666    1.790918
     54          6           0        4.662316    0.274441    0.244618
     55          6           0        3.689558    0.528586    2.856058
     56          1           0        1.719025    0.372759    1.971544
     57          6           0        5.553531    0.413249    1.308227
     58          1           0        5.020861    0.176184   -0.781816
     59          6           0        5.068565    0.540408    2.616302
     60          1           0        3.309919    0.627258    3.875852
     61          1           0        6.630276    0.422080    1.120343
     62          1           0        5.766534    0.649859    3.450373
 ---------------------------------------------------------------------

 SCF Done:  E(RPBE-PBE) =  -25973.3615080     A.U. after   10 cycles

      1  Pt   Isotropic =  2588.5789   Anisotropy =  1522.0059

      2  P    Isotropic =   299.4113   Anisotropy =    29.6188

      3  P    Isotropic =   282.5482   Anisotropy =    37.7959

      4  C    Isotropic =   155.1283   Anisotropy =    35.8258

      5  H    Isotropic =    28.7080   Anisotropy =     9.8102

      6  H    Isotropic =    29.3259   Anisotropy =     5.5425

      7  C    Isotropic =   173.2488   Anisotropy =    20.6552

      8  H    Isotropic =    30.4438   Anisotropy =     9.0669

      9  H    Isotropic =    30.2295   Anisotropy =    13.0178

     10  H    Isotropic =    30.2547   Anisotropy =     7.5323

     11  C    Isotropic =   152.3970   Anisotropy =    29.9932

     12  H    Isotropic =    28.9952   Anisotropy =     7.3264

     13  C    Isotropic =   165.5576   Anisotropy =    17.9057

     14  H    Isotropic =    29.3401   Anisotropy =     8.8200

     15  H    Isotropic =    30.6683   Anisotropy =     6.9850

     16  C    Isotropic =   173.4520   Anisotropy =    21.0016

     17  H    Isotropic =    30.3943   Anisotropy =    13.1592

     18  H    Isotropic =    30.3400   Anisotropy =     7.1465

     19  H    Isotropic =    30.6408   Anisotropy =     9.2106

     20  C    Isotropic =   157.5687   Anisotropy =    20.6914

     21  H    Isotropic =    29.4178   Anisotropy =     9.8361

     22  H    Isotropic =    29.2569   Anisotropy =     8.9335

     23  C    Isotropic =   171.5890   Anisotropy =    17.4324

     24  H    Isotropic =    31.0531   Anisotropy =     8.1371

     25  H    Isotropic =    30.2849   Anisotropy =     5.8446

     26  H    Isotropic =    30.2466   Anisotropy =    12.9856

     27  C    Isotropic =   163.9798   Anisotropy =    34.0245

     28  H    Isotropic =    29.6033   Anisotropy =     5.3997

     29  H    Isotropic =    30.5013   Anisotropy =     8.2043

     30  C    Isotropic =   177.6844   Anisotropy =    17.6711

     31  H    Isotropic =    30.4821   Anisotropy =    13.2600

     32  H    Isotropic =    30.8360   Anisotropy =     9.6046

     33  H    Isotropic =    30.7233   Anisotropy =     9.8047

     34  C    Isotropic =   158.5730   Anisotropy =    23.4329

     35  H    Isotropic =    29.4718   Anisotropy =     9.6538

     36  H    Isotropic =    29.1648   Anisotropy =     9.4709

     37  C    Isotropic =   172.0071   Anisotropy =    19.3782

     38  H    Isotropic =    30.2053   Anisotropy =    13.0809

     39  H    Isotropic =    30.3796   Anisotropy =     6.1947

     40  H    Isotropic =    30.4479   Anisotropy =     9.2560

     41  Sn   Isotropic =  2173.4878   Anisotropy =   750.1422

     42  Cl   Isotropic =   764.9143   Anisotropy =   312.7916

     43  Cl   Isotropic =   747.1804   Anisotropy =   304.0244

     44  Cl   Isotropic =   748.1064   Anisotropy =   316.0805

     45  C    Isotropic =   171.2043   Anisotropy =    21.0693

     46  H    Isotropic =    30.1363   Anisotropy =    12.2815

     47  H    Isotropic =    30.4769   Anisotropy =     8.8807

     48  H    Isotropic =    30.4576   Anisotropy =     8.8293

     49  H    Isotropic =    28.4179   Anisotropy =     9.2402

     50  C    Isotropic =   -73.8845   Anisotropy =   159.4365

     51  O    Isotropic =  -346.8443   Anisotropy =   806.4456

     52  C    Isotropic =    11.0944   Anisotropy =   139.2255

     53  C    Isotropic =    28.1823   Anisotropy =   185.3952

     54  C    Isotropic =    33.1646   Anisotropy =   155.2130

     55  C    Isotropic =    35.8681   Anisotropy =   171.0662

     56  H    Isotropic =    23.8619   Anisotropy =    13.7980

     57  C    Isotropic =    37.2125   Anisotropy =   174.2898

     58  H    Isotropic =    23.3776   Anisotropy =     8.5230

     59  C    Isotropic =    25.0678   Anisotropy =   174.5711

     60  H    Isotropic =    23.1636   Anisotropy =     8.8795

     61  H    Isotropic =    22.2073   Anisotropy =     7.2899

     62  H    Isotropic =    22.0926   Anisotropy =     7.5247

 The electronic state is 1-A.
 Alpha  occ. eigenvalues -- ********************-427.53823-414.86874-414.86817
 Alpha  occ. eigenvalues -- -414.86565-149.65016-141.92824-141.92821-141.92757
 Alpha  occ. eigenvalues -- -100.55347-100.55294-100.55289 -99.91877 -92.07757
 Alpha  occ. eigenvalues --  -92.07573 -92.07278 -79.03595 -79.03489 -79.03318
 Alpha  occ. eigenvalues --  -79.03221 -79.03191 -76.29828 -76.29659 -28.81396
 Alpha  occ. eigenvalues --  -25.16020 -25.16015 -25.15812 -20.83350 -18.76371
 Alpha  occ. eigenvalues --  -17.70913 -17.70912 -17.70775 -17.70774 -17.70732
 Alpha  occ. eigenvalues --  -17.40235 -17.39893 -17.39241 -11.58525 -11.58164
 Alpha  occ. eigenvalues --  -11.57790 -11.57601 -11.57542  -9.98138  -9.91722
 Alpha  occ. eigenvalues --   -9.91101  -9.91067  -9.90913  -9.90864  -9.90822
 Alpha  occ. eigenvalues --   -9.90796  -9.90796  -9.90793  -9.90758  -9.90737
 Alpha  occ. eigenvalues --   -9.90716  -9.89050  -9.89038  -9.89018  -9.88953
 Alpha  occ. eigenvalues --   -9.88839  -9.88734  -9.13204  -9.13152  -9.13131
 Alpha  occ. eigenvalues --   -6.96952  -6.96898  -6.96881  -6.96416  -6.96405
 Alpha  occ. eigenvalues --   -6.96366  -6.96353  -6.96344  -6.96333  -6.32883
 Alpha  occ. eigenvalues --   -6.32744  -4.55413  -4.55405  -4.55272  -4.55254
 Alpha  occ. eigenvalues --   -4.55135  -4.55004  -4.50078  -3.23508  -3.23488
 Alpha  occ. eigenvalues --   -3.23120  -3.13414  -3.13370  -3.12951  -3.12680
 Alpha  occ. eigenvalues --   -3.12577  -3.12429  -3.12406  -2.86357  -1.81457
 Alpha  occ. eigenvalues --   -1.81150  -1.78733  -1.02520  -1.02511  -1.02167
 Alpha  occ. eigenvalues --   -1.02149  -1.02033  -0.97220  -0.79436  -0.73555
 Alpha  occ. eigenvalues --   -0.73469  -0.71761  -0.70339  -0.70288  -0.70031
 Alpha  occ. eigenvalues --   -0.69543  -0.69464  -0.69219  -0.69187  -0.68947
 Alpha  occ. eigenvalues --   -0.61359  -0.61093  -0.58304  -0.57341  -0.56914
 Alpha  occ. eigenvalues --   -0.56529  -0.55852  -0.55557  -0.50928  -0.49150
 Alpha  occ. eigenvalues --   -0.48393  -0.46516  -0.43259  -0.42836  -0.42674
 Alpha  occ. eigenvalues --   -0.42404  -0.42349  -0.41538  -0.41094  -0.40872
 Alpha  occ. eigenvalues --   -0.40357  -0.39649  -0.39299  -0.38502  -0.38337
 Alpha  occ. eigenvalues --   -0.38179  -0.38042  -0.37659  -0.37359  -0.37059
 Alpha  occ. eigenvalues --   -0.36723  -0.36175  -0.35192  -0.34806  -0.34241
 Alpha  occ. eigenvalues --   -0.33911  -0.33691  -0.33341  -0.33263  -0.32746
 Alpha  occ. eigenvalues --   -0.32482  -0.32137  -0.32121  -0.31830  -0.31582
 Alpha  occ. eigenvalues --   -0.31428  -0.31255  -0.31009  -0.30869  -0.29902
 Alpha  occ. eigenvalues --   -0.29179  -0.29039  -0.28640  -0.28409  -0.27304
 Alpha  occ. eigenvalues --   -0.27200  -0.26835  -0.26336  -0.26085  -0.25841
 Alpha  occ. eigenvalues --   -0.25798  -0.25698  -0.25660  -0.24577  -0.24421
 Alpha  occ. eigenvalues --   -0.22959  -0.22192  -0.17945
 Alpha virt. eigenvalues --   -0.09920  -0.08094  -0.06317  -0.05645  -0.04772
 Alpha virt. eigenvalues --   -0.03057  -0.02317  -0.01756  -0.01601  -0.01058
 Alpha virt. eigenvalues --   -0.00661  -0.00489   0.00060   0.00408   0.00675

 Mulliken charges:
               1
     1  Pt   0.458945
     2  P    0.070178
     3  P    0.355430
     4  C   -0.329827
     5  H    0.085895
     6  H    0.093126
     7  C   -0.179616
     8  H    0.110243
     9  H    0.136374
    10  H    0.112936
    11  C   -0.358285
    12  H    0.095204
    13  C   -0.352012
    14  H    0.116114
    15  H    0.088998
    16  C   -0.174746
    17  H    0.130507
    18  H    0.093809
    19  H    0.105384
    20  C   -0.460193
    21  H    0.108126
    22  H    0.080049
    23  C   -0.092226
    24  H    0.096884
    25  H    0.071185
    26  H    0.131387
    27  C   -0.467361
    28  H    0.098652
    29  H    0.083814
    30  C   -0.195284
    31  H    0.139606
    32  H    0.115651
    33  H    0.114271
    34  C   -0.457659
    35  H    0.107408
    36  H    0.086766
    37  C   -0.114940
    38  H    0.136016
    39  H    0.077997
    40  H    0.101377
    41  Sn   0.341261
    42  Cl  -0.323259
    43  Cl  -0.293445
    44  Cl  -0.268136
    45  C   -0.180250
    46  H    0.133050
    47  H    0.117825
    48  H    0.110036
    49  H    0.080234
    50  C    0.209809
    51  O   -0.218466
    52  C   -0.698076
    53  C    0.444746
    54  C    0.216978
    55  C    0.019656
    56  H    0.071038
    57  C   -0.287570
    58  H    0.129810
    59  C   -0.486218
    60  H    0.146228
    61  H    0.158330
    62  H    0.156235
 Sum of Mulliken charges =   0.00000

 Dipole moment (field-independent basis, Debye):
    X=             13.5291    Y=              1.5364    Z=             -2.7565  Tot=             13.8922
 Quadrupole moment (field-independent basis, Debye-Ang):
   XX=           -277.4814   YY=           -216.7676   ZZ=           -247.1490
   XY=             -6.6170   XZ=             21.5762   YZ=              3.3802

 Normal termination of Gaussian 09 at Mon Nov  4 00:15:39 2019.
