 Gaussian 09, Revision D.01,
 Gaussian 09:  EM64L-G09RevD.01 24-Apr-2013

 ----------------------------------------------------------------------
 #PBEPBE/gen scf=(maxcycle=500,conver=2) NMR=GIAO Scrf=(solvent=Dichlor
 omethane)
 ----------------------------------------------------------------------

 ------------
 estrutura 91
 ------------
 Symbolic Z-matrix:
 Charge =  0 Multiplicity = 1

                         Standard orientation:
 ---------------------------------------------------------------------
 Center     Atomic      Atomic             Coordinates (Angstroms)
 Number     Number       Type             X           Y           Z
 ---------------------------------------------------------------------
      1         78           0        0.715628    0.354789   -0.164155
      2          6           0        0.747512    2.433612   -0.054315
      3          6           0        0.606324    3.168188    1.139097
      4          6           0        0.952662    3.180728   -1.233726
      5          6           0        0.681320    4.566895    1.160112
      6          1           0        0.418622    2.650296    2.081918
      7          6           0        1.018141    4.579699   -1.224218
      8          1           0        1.075417    2.662546   -2.189338
      9          6           0        0.885806    5.283573   -0.022710
     10          1           0        0.565363    5.098231    2.109766
     11          1           0        1.177887    5.119846   -2.162586
     12          1           0        0.936788    6.375939   -0.009757
     13         15           0        3.096599    0.480210    0.541703
     14         15           0        0.531277   -2.061025   -0.422267
     15          6           0        3.201793    0.719270    2.372198
     16          6           0        4.446112    0.874572    3.013759
     17          6           0        2.038432    0.662004    3.155384
     18          6           0        4.516442    0.999809    4.402480
     19          1           0        5.369167    0.885124    2.429620
     20          6           0        2.111145    0.779663    4.548384
     21          1           0        1.072100    0.506815    2.671102
     22          6           0        3.347937    0.954796    5.173298
     23          1           0        5.488790    1.124010    4.885801
     24          1           0        1.196049    0.727579    5.143828
     25          1           0        3.405422    1.045917    6.260860
     26          6           0        3.948057    1.928551   -0.232437
     27          6           0        4.030570    1.967907   -1.637192
     28          6           0        4.478641    3.000970    0.500188
     29          6           0        4.668355    3.025646   -2.288314
     30          1           0        3.581627    1.173050   -2.237408
     31          6           0        5.101584    4.069741   -0.154437
     32          1           0        4.400945    3.020120    1.587243
     33          6           0        5.208761    4.081383   -1.546924
     34          1           0        4.728751    3.031333   -3.379318
     35          1           0        5.503982    4.898023    0.433985
     36          1           0        5.700224    4.915092   -2.054394
     37          6           0        4.352934   -0.883177    0.336791
     38          6           0        4.278341   -1.986394    1.206614
     39          6           0        5.366050   -0.866353   -0.635682
     40          6           0        5.187626   -3.041710    1.104840
     41          1           0        3.512897   -2.020450    1.982790
     42          6           0        6.277383   -1.923074   -0.735509
     43          1           0        5.465471   -0.023795   -1.318094
     44          6           0        6.191273   -3.015520    0.131235
     45          1           0        5.111137   -3.885691    1.794000
     46          1           0        7.062024   -1.884045   -1.495954
     47          1           0        6.905437   -3.838926    0.052994
     48          6           0       -1.040595   -2.805415   -1.081024
     49          6           0       -1.759532   -3.801222   -0.403077
     50          6           0       -1.471513   -2.403833   -2.357529
     51          6           0       -2.888118   -4.383825   -0.990725
     52          1           0       -1.445654   -4.130542    0.588386
     53          6           0       -2.595985   -2.988576   -2.943318
     54          1           0       -0.926410   -1.630535   -2.904524
     55          6           0       -3.308502   -3.981340   -2.260872
     56          1           0       -3.439663   -5.155952   -0.447822
     57          1           0       -2.919654   -2.661722   -3.934398
     58          1           0       -4.190282   -4.437917   -2.718435
     59          6           0        0.744815   -2.940437    1.191043
     60          6           0        1.605822   -4.028553    1.400840
     61          6           0       -0.023097   -2.464889    2.271773
     62          6           0        1.697205   -4.627687    2.662955
     63          1           0        2.224166   -4.409285    0.587983
     64          6           0        0.064626   -3.069739    3.528294
     65          1           0       -0.706240   -1.623941    2.127318
     66          6           0        0.927830   -4.152376    3.728265
     67          1           0        2.375810   -5.471388    2.810374
     68          1           0       -0.543142   -2.691425    4.353843
     69          1           0        1.000609   -4.622900    4.712237
     70          6           0        1.689676   -2.817460   -1.655901
     71          6           0        1.666138   -4.196693   -1.941626
     72          6           0        2.502968   -1.982799   -2.435631
     73          6           0        2.463001   -4.724773   -2.958516
     74          1           0        1.002946   -4.863393   -1.386969
     75          6           0        3.291286   -2.509694   -3.464661
     76          1           0        2.501899   -0.907973   -2.246528
     77          6           0        3.278136   -3.881886   -3.723534
     78          1           0        2.435217   -5.797620   -3.165802
     79          1           0        3.913574   -1.841916   -4.065268
     80          1           0        3.892104   -4.295505   -4.527111
     81         50           0       -1.868845    0.903584   -0.518755
     82          6           0       -2.599023    0.995064   -2.599140
     83          6           0       -3.850975    0.466555   -2.957381
     84          6           0       -1.833384    1.615570   -3.603521
     85          6           0       -4.329792    0.564795   -4.270414
     86          1           0       -4.459953   -0.045198   -2.206194
     87          6           0       -2.305128    1.714060   -4.920237
     88          1           0       -0.851847    2.034735   -3.365612
     89          6           0       -3.557343    1.190325   -5.256240
     90          1           0       -5.308736    0.149125   -4.525383
     91          1           0       -1.692121    2.201881   -5.684286
     92          1           0       -3.929057    1.267603   -6.282229
     93          6           0       -2.689028    2.762802    0.323090
     94          6           0       -3.122851    3.797916   -0.520787
     95          6           0       -2.809077    2.950097    1.711494
     96          6           0       -3.655836    4.984090    0.001794
     97          1           0       -3.051194    3.686226   -1.606503
     98          6           0       -3.343986    4.130228    2.240274
     99          1           0       -2.484626    2.164098    2.400670
    100          6           0       -3.768474    5.152874    1.384476
    101          1           0       -3.986354    5.776322   -0.675725
    102          1           0       -3.429257    4.253366    3.323646
    103          1           0       -4.186023    6.076277    1.794716
    104         16           0       -3.393518   -0.747016    0.638711
    105          6           0       -4.987768    0.183914    0.898518
    106          1           0       -4.778049    1.111998    1.446143
    107          1           0       -5.403942    0.453617   -0.082700
    108          6           0       -5.956086   -0.681250    1.662288
    109          6           0       -6.786339   -1.596639    0.993101
    110          6           0       -6.034761   -0.608275    3.063671
    111          6           0       -7.675335   -2.408787    1.702367
    112          1           0       -6.734254   -1.670549   -0.097041
    113          6           0       -6.922994   -1.419190    3.776332
    114          1           0       -5.393864    0.096995    3.600128
    115          6           0       -7.747132   -2.322792    3.097680
    116          1           0       -8.317220   -3.110638    1.163566
    117          1           0       -6.973862   -1.343022    4.866108
    118          1           0       -8.443904   -2.955740    3.653071
 ---------------------------------------------------------------------

 SCF Done:  E(RPBE-PBE) =  -26040.3234693     A.U. after   35 cycles

      1  Pt   Isotropic =  3565.9202   Anisotropy = 33532.9284

      2  C    Isotropic = -2373.9098   Anisotropy =  3799.0723

      3  C    Isotropic =   -77.4754   Anisotropy =  5567.9433

      4  C    Isotropic = -1733.1796   Anisotropy =  2579.6695

      5  C    Isotropic = -2404.6378   Anisotropy =  2905.5840

      6  H    Isotropic =    46.2675   Anisotropy =   662.6349

      7  C    Isotropic = -4069.6335   Anisotropy =  6818.5751

      8  H    Isotropic =   -46.2986   Anisotropy =   561.4467

      9  C    Isotropic =   -91.9489   Anisotropy =   964.5240

     10  H    Isotropic =  -308.0650   Anisotropy =   505.9895

     11  H    Isotropic =  -194.6554   Anisotropy =   427.4834

     12  H    Isotropic =  -188.1555   Anisotropy =   371.3107

     13  P    Isotropic =  -288.1991   Anisotropy =  8163.5376

     14  P    Isotropic = -1043.1373   Anisotropy = 17202.9607

     15  C    Isotropic =  3378.4577   Anisotropy =  6496.0469

     16  C    Isotropic =  3756.1986   Anisotropy =  7823.0463

     17  C    Isotropic =  6599.5706   Anisotropy = 11369.2682

     18  C    Isotropic =  3273.4165   Anisotropy =  5315.7798

     19  H    Isotropic =   -61.6096   Anisotropy =   403.6699

     20  C    Isotropic =  4775.1378   Anisotropy =  4981.8478

     21  H    Isotropic =  -789.8634   Anisotropy =  1498.8907

     22  C    Isotropic =  5590.4184   Anisotropy =  5205.1406

     23  H    Isotropic =   548.6359   Anisotropy =  1550.2991

     24  H    Isotropic =   144.0384   Anisotropy =   654.3912

     25  H    Isotropic =  1068.7500   Anisotropy =  3441.6987

     26  C    Isotropic =  4429.6187   Anisotropy =  9129.9437

     27  C    Isotropic =  6224.8572   Anisotropy = 10830.5193

     28  C    Isotropic =  5838.2766   Anisotropy =  7856.6755

     29  C    Isotropic =  6148.2348   Anisotropy = 10592.8677

     30  H    Isotropic =  -648.3491   Anisotropy =  1116.6234

     31  C    Isotropic =  5713.1923   Anisotropy =  7698.8010

     32  H    Isotropic =  -134.0244   Anisotropy =  1146.5394

     33  C    Isotropic =  4956.9592   Anisotropy =  3923.4493

     34  H    Isotropic =   201.0238   Anisotropy =  1357.8080

     35  H    Isotropic =   679.6284   Anisotropy =  2548.0313

     36  H    Isotropic =  1248.9672   Anisotropy =  4205.8932

     37  C    Isotropic =  9865.4743   Anisotropy = 25018.3641

     38  C    Isotropic = 10547.8370   Anisotropy = 23091.5279

     39  C    Isotropic =  8624.8507   Anisotropy = 14319.5367

     40  C    Isotropic = 12755.1378   Anisotropy = 18790.5120

     41  H    Isotropic =  -907.0443   Anisotropy =  2139.8194

     42  C    Isotropic = 10017.0885   Anisotropy =  9087.4595

     43  H    Isotropic =    13.4515   Anisotropy =   757.1226

     44  C    Isotropic = 10167.9186   Anisotropy = 10369.0061

     45  H    Isotropic =   681.4662   Anisotropy =  3171.6336

     46  H    Isotropic =  1141.5459   Anisotropy =  3875.4247

     47  H    Isotropic =  2158.6700   Anisotropy =  7195.9548

     49  C    Isotropic =  2839.5920   Anisotropy =  8339.5725

     50  C    Isotropic = -3670.4529   Anisotropy =  8744.2736

     51  C    Isotropic =  2406.2318   Anisotropy = 14294.1472

     52  H    Isotropic =   218.1499   Anisotropy =  2005.5114

     53  C    Isotropic = -3930.7681   Anisotropy =  6026.3782

     54  H    Isotropic =   549.7707   Anisotropy =  3140.4354

     55  C    Isotropic =   200.5982   Anisotropy =  5819.4468

     56  H    Isotropic = -1161.4830   Anisotropy =  2194.6527

     57  H    Isotropic =    88.3931   Anisotropy =   406.5942

     58  H    Isotropic = -1538.1417   Anisotropy =  2809.1723

     59  C    Isotropic =  3078.6176   Anisotropy = 18738.8339

     60  C    Isotropic =  2885.2837   Anisotropy =  7301.6139

     61  C    Isotropic =  3745.6237   Anisotropy =  8987.4380

     62  C    Isotropic =  7228.8178   Anisotropy =  7694.6997

     63  H    Isotropic =  -130.7071   Anisotropy =   524.8582

     64  C    Isotropic =  1948.0506   Anisotropy =  7250.4556

     65  H    Isotropic =  -100.3203   Anisotropy =   693.2406

     66  C    Isotropic =  2017.6289   Anisotropy =  3775.7410

     67  H    Isotropic =   844.8992   Anisotropy =  2944.0193

     68  H    Isotropic =   -20.5938   Anisotropy =   229.0345

     69  H    Isotropic =   361.6855   Anisotropy =  1285.5173

     70  C    Isotropic = -1599.1098   Anisotropy =  4453.5008

     71  C    Isotropic =  2927.2357   Anisotropy = 15794.3791

     72  C    Isotropic =  7834.9045   Anisotropy = 31603.7208

     73  C    Isotropic =  -591.4736   Anisotropy =  1065.3781

     74  H    Isotropic =   186.6697   Anisotropy =   533.3230

     75  C    Isotropic = -3139.3116   Anisotropy =  6265.7267

     76  H    Isotropic =  -189.9499   Anisotropy =   986.8180

     77  C    Isotropic =  4008.7198   Anisotropy = 13472.9584

     78  H    Isotropic =  -513.3272   Anisotropy =   893.1624

     79  H    Isotropic =  -204.7561   Anisotropy =   259.8911

     80  H    Isotropic =  -269.1571   Anisotropy =   314.1230

     82  C    Isotropic =  5764.6529   Anisotropy = 34810.9323

     83  C    Isotropic =  1959.5532   Anisotropy =  2400.9012

     84  C    Isotropic =   875.6376   Anisotropy =  2550.8977

     85  C    Isotropic =  -237.1560   Anisotropy =  5015.3306

     86  H    Isotropic =    24.5871   Anisotropy =   568.0230

     87  C    Isotropic = -2198.6178   Anisotropy =  6222.2378

     88  H    Isotropic =  -304.6468   Anisotropy =   723.1155

     89  C    Isotropic = -5602.4369   Anisotropy = 11892.1494

     90  H    Isotropic =   104.8235   Anisotropy =   499.3675

     91  H    Isotropic =   113.0253   Anisotropy =   699.3338

     92  H    Isotropic =  -237.5464   Anisotropy =   329.8874

     93  C    Isotropic =  -217.3542   Anisotropy = 24029.2856

     94  C    Isotropic = -1742.4476   Anisotropy = 12113.6126

     95  C    Isotropic = -2164.4733   Anisotropy =  2945.0781

     96  C    Isotropic = -4352.4147   Anisotropy = 11508.9447

     97  H    Isotropic =    56.5945   Anisotropy =   341.2356

     98  C    Isotropic = -5655.7859   Anisotropy = 11416.5070

     99  H    Isotropic =   182.4010   Anisotropy =  1280.4520

    100  C    Isotropic =  -682.9822   Anisotropy =  4158.8075

    101  H    Isotropic =    39.2200   Anisotropy =   197.7623

    102  H    Isotropic =  -280.2937   Anisotropy =   437.1522

    103  H    Isotropic =  -372.5096   Anisotropy =   645.3618

    104  S    Isotropic =   722.3288   Anisotropy =  3184.2608

    105  C    Isotropic =  3442.4047   Anisotropy = 20965.5690

    106  H    Isotropic =   373.1279   Anisotropy =  1130.3806

    107  H    Isotropic =    62.5346   Anisotropy =  2026.0128

    108  C    Isotropic =  9980.9397   Anisotropy = 18398.6787

    109  C    Isotropic =    28.4417   Anisotropy = 12711.3115

    110  C    Isotropic = -2925.7186   Anisotropy = 16750.1105

    111  C    Isotropic =  4550.0472   Anisotropy = 13927.3526

    112  H    Isotropic =  -114.3549   Anisotropy =  1002.7390

    113  C    Isotropic = -3558.7762   Anisotropy = 24781.0483

    114  H    Isotropic =   -46.5477   Anisotropy =   396.6326

    115  C    Isotropic =  5756.7164   Anisotropy = 16360.8568

    116  H    Isotropic =   407.3904   Anisotropy =  1544.6525

    117  H    Isotropic =    54.9529   Anisotropy =   596.2802

    118  H    Isotropic =   251.2740   Anisotropy =  1667.6577

 The electronic state is 1-A.
 Alpha  occ. eigenvalues -- ********************-426.05535-413.37248-413.37226
 Alpha  occ. eigenvalues -- -413.37156-150.10554-142.38502-142.38475-142.38440
 Alpha  occ. eigenvalues --  -98.55467 -90.70449 -90.70382 -90.70312 -77.63739
 Alpha  occ. eigenvalues --  -77.63726 -77.63681 -77.63649 -77.63640 -76.94753
 Alpha  occ. eigenvalues --  -76.77173 -33.31939 -29.25684 -28.76955 -26.41907
 Alpha  occ. eigenvalues --  -25.60394 -25.60383 -25.60084 -20.15192 -19.65761
 Alpha  occ. eigenvalues --  -18.15435 -18.15434 -18.15243 -18.15241 -18.15180
 Alpha  occ. eigenvalues --  -17.38141 -16.22818 -16.22513 -16.22401 -15.20379
 Alpha  occ. eigenvalues --  -13.42245 -11.16189 -11.05256 -10.94194 -10.94069
 Alpha  occ. eigenvalues --  -10.91096 -10.87703 -10.87436 -10.86538 -10.86382
 Alpha  occ. eigenvalues --  -10.84810 -10.81968 -10.81566 -10.76363 -10.74876
 Alpha  occ. eigenvalues --  -10.74108 -10.73925 -10.73006 -10.72289 -10.71656
 Alpha  occ. eigenvalues --  -10.70986 -10.69625 -10.69074 -10.68178 -10.67535
 Alpha  occ. eigenvalues --  -10.65806 -10.65642 -10.60893 -10.59592 -10.59259
 Alpha  occ. eigenvalues --  -10.59029 -10.58363 -10.57514 -10.57105 -10.55629
 Alpha  occ. eigenvalues --  -10.53305 -10.52332 -10.52213 -10.51478 -10.50342
 Alpha  occ. eigenvalues --  -10.49976 -10.48459 -10.47724 -10.47419 -10.46258
 Alpha  occ. eigenvalues --  -10.43420 -10.43358 -10.42121 -10.41589 -10.41089
 Alpha  occ. eigenvalues --  -10.40992 -10.40912 -10.40709 -10.40704 -10.35229
 Alpha  occ. eigenvalues --  -10.34254 -10.32042 -10.28465 -10.22583 -10.22444
 Alpha  occ. eigenvalues --  -10.20414 -10.16572 -10.15270 -10.14023 -10.11879
 Alpha  occ. eigenvalues --  -10.09361 -10.02569 -10.00098  -9.97233  -9.88516
 Alpha  occ. eigenvalues --   -9.35716  -7.89074  -7.47306  -6.97906  -6.94330
 Alpha  occ. eigenvalues --   -6.76300  -6.70818  -6.42687  -6.02995  -5.88974
 Alpha  occ. eigenvalues --   -5.17411  -5.17253  -5.16447  -4.99434  -4.99009
 Alpha  occ. eigenvalues --   -4.98828  -4.98513  -4.92356  -4.72396  -4.63256
 Alpha  occ. eigenvalues --   -4.04919  -3.89783  -3.66287  -3.65560  -3.64258
 Alpha  occ. eigenvalues --   -3.47516  -3.45557  -3.15632  -2.90155  -2.82430
 Alpha  occ. eigenvalues --   -2.62377  -2.49081  -2.31500  -2.22681  -2.14550
 Alpha  occ. eigenvalues --   -2.12118  -1.99059  -1.99024  -1.98930  -1.98798
 Alpha  occ. eigenvalues --   -1.98787  -1.98593  -1.98592  -1.96716  -1.92460
 Alpha  occ. eigenvalues --   -1.73063  -1.72847  -1.67369  -1.62595  -1.57005
 Alpha  occ. eigenvalues --   -1.54868  -1.52266  -1.51333  -1.50947  -1.50491
 Alpha  occ. eigenvalues --   -1.50391  -1.48208  -1.45212  -1.44796  -1.43613
 Alpha  occ. eigenvalues --   -1.42939  -1.42462  -1.38930  -1.38638  -1.38622
 Alpha  occ. eigenvalues --   -1.37907  -1.36685  -1.36218  -1.34408  -1.34273
 Alpha  occ. eigenvalues --   -1.32928  -1.32378  -1.32352  -1.32186  -1.31276
 Alpha  occ. eigenvalues --   -1.29837  -1.29004  -1.28173  -1.27322  -1.26481
 Alpha  occ. eigenvalues --   -1.24840  -1.22925  -1.22171  -1.21077  -1.21003
 Alpha  occ. eigenvalues --   -1.20825  -1.20260  -1.20025  -1.19573  -1.18880
 Alpha  occ. eigenvalues --   -1.18727  -1.18017  -1.17348  -1.17176  -1.16967
 Alpha  occ. eigenvalues --   -1.16606  -1.15980  -1.15424  -1.14971  -1.14486
 Alpha  occ. eigenvalues --   -1.14094  -1.13740  -1.13426  -1.12604  -1.11695
 Alpha  occ. eigenvalues --   -1.11639  -1.11622  -1.11597  -1.10517  -1.09834
 Alpha  occ. eigenvalues --   -1.09708  -1.07954  -1.07409  -1.07071  -1.05671
 Alpha  occ. eigenvalues --   -1.05653  -1.03090  -1.02577  -1.02261  -1.01749
 Alpha  occ. eigenvalues --   -1.01651  -1.01540  -1.01257  -1.00970  -1.00725
 Alpha  occ. eigenvalues --   -1.00571  -0.99880  -0.99618  -0.99566  -0.99386
 Alpha  occ. eigenvalues --   -0.99142  -0.98808  -0.98689  -0.98448  -0.98247
 Alpha  occ. eigenvalues --   -0.97497  -0.97434  -0.97001  -0.96715  -0.96402
 Alpha  occ. eigenvalues --   -0.96013  -0.95303  -0.95138  -0.94997  -0.94516
 Alpha  occ. eigenvalues --   -0.94298  -0.94268  -0.93744  -0.93149  -0.92679
 Alpha  occ. eigenvalues --   -0.92183  -0.91741  -0.91174  -0.90591  -0.89889
 Alpha  occ. eigenvalues --   -0.89402  -0.88512  -0.88008  -0.87752  -0.87627
 Alpha  occ. eigenvalues --   -0.87190  -0.86855  -0.86377  -0.86241  -0.85689
 Alpha  occ. eigenvalues --   -0.85478  -0.84780  -0.84582  -0.84371  -0.84123
 Alpha  occ. eigenvalues --   -0.83877  -0.83206  -0.83004  -0.82886  -0.82779
 Alpha  occ. eigenvalues --   -0.82351  -0.82021  -0.80849  -0.80411  -0.80268
 Alpha  occ. eigenvalues --   -0.79960  -0.79852  -0.79767  -0.79699  -0.79213
 Alpha  occ. eigenvalues --   -0.79132
 Alpha virt. eigenvalues --   -0.79042  -0.78332  -0.77390  -0.77035  -0.76741
 Alpha virt. eigenvalues --   -0.76020  -0.75879  -0.75814  -0.75593  -0.75573
 Alpha virt. eigenvalues --   -0.73574  -0.73529  -0.71618  -0.70852  -0.70392

 Mulliken charges:
               1
     1  Pt  11.809149
     2  C   -0.173210
     3  C   -1.702392
     4  C   -1.632267
     5  C   -0.246592
     6  H    0.425880
     7  C    0.285638
     8  H    0.529247
     9  C    0.865997
    10  H    0.533068
    11  H    0.661683
    12  H    1.054586
    13  P    0.703503
    14  P   -1.335000
    15  C   -2.872909
    16  C   -0.709532
    17  C   -1.710879
    18  C   -0.797725
    19  H    0.443659
    20  C   -2.850277
    21  H    0.628146
    22  C   -1.778272
    23  H    0.419870
    24  H    0.545227
    25  H    0.505340
    26  C   -0.073986
    27  C   -2.997753
    28  C   -2.707497
    29  C   -0.765517
    30  H    0.491606
    31  C   -1.664008
    32  H    0.456982
    33  C   -1.238571
    34  H    0.481353
    35  H    0.485722
    36  H    0.456224
    37  C   -0.472439
    38  C   -1.876822
    39  C   -0.897691
    40  C   -2.036797
    41  H    0.478909
    42  C   -1.798615
    43  H    0.406752
    44  C   -2.695905
    45  H    0.611902
    46  H    0.517056
    47  H    0.549642
    48  C    0.948381
    49  C   -2.144470
    50  C    0.969514
    51  C    2.329159
    52  H    0.327699
    53  C    1.548023
    54  H    1.023806
    55  C    2.262935
    56  H    0.781069
    57  H    1.005614
    58  H    0.978138
    59  C   -1.844980
    60  C   -2.737703
    61  C   -1.087479
    62  C   -1.879749
    63  H    0.555357
    64  C   -1.489148
    65  H    0.529617
    66  C   -1.384887
    67  H    0.507014
    68  H    0.526162
    69  H    0.509766
    70  C    0.830800
    71  C    0.969789
    72  C    1.107360
    73  C   -0.069864
    74  H    0.877933
    75  C   -0.768816
    76  H    0.814518
    77  C   -0.683054
    78  H    0.506568
    79  H    0.475637
    80  H    0.489784
    81  Sn  -4.250760
    82  C   -0.547313
    83  C   -2.614751
    84  C   -2.688587
    85  C   -1.323585
    86  H    0.714020
    87  C   -0.485536
    88  H    0.546775
    89  C    0.152055
    90  H    0.496913
    91  H    0.525132
    92  H    1.048850
    93  C    0.479131
    94  C    0.955721
    95  C   -0.310946
    96  C   -0.529700
    97  H    0.392923
    98  C   -0.332089
    99  H    0.997292
   100  C   -0.438850
   101  H    0.502665
   102  H    0.498538
   103  H    0.414348
   104  S   16.000000
   105  C  -12.753838
   106  H    1.516282
   107  H    1.665030
   108  C    1.171251
   109  C    0.146067
   110  C    0.702002
   111  C   -1.421383
   112  H    0.496499
   113  C   -0.370022
   114  H    0.869923
   115  C    0.031583
   116  H    0.527719
   117  H    0.642603
   118  H    0.477058
 Sum of Mulliken charges =   0.00000

 Dipole moment (field-independent basis, Debye):
    X=           -623.5470    Y=            -56.8342    Z=           -258.0305  Tot=            677.2154
 Quadrupole moment (field-independent basis, Debye-Ang):
   XX=          -3786.4351   YY=          -2235.4699   ZZ=          -2644.8309
   XY=            141.3352   XZ=           -578.6306   YZ=            894.7003

 Normal termination of Gaussian 09 at Sat Apr 11 19:43:21 2020.
