 Gaussian 09, Revision D.01,
 Gaussian 09:  EM64L-G09RevD.01 24-Apr-2013

 ----------------------------------------------------------------------
 #PBEPBE/gen scf=(maxcycle=500,conver=4) NMR=GIAO Scrf=(solvent=Dichlor
 omethane)
 ----------------------------------------------------------------------

 ------------
 estrutura 58
 ------------
 Symbolic Z-matrix:
 Charge =  0 Multiplicity = 1

                         Standard orientation:
 ---------------------------------------------------------------------
 Center     Atomic      Atomic             Coordinates (Angstroms)
 Number     Number       Type             X           Y           Z
 ---------------------------------------------------------------------
      1         15           0       -1.892136   -1.443207    0.470169
      2         15           0        1.893019    1.442729   -0.469792
      3          6           0       -3.524758   -0.733424    0.128805
      4          6           0       -4.102343   -1.360052   -0.923523
      5          6           0       -3.290443   -2.487536   -1.472688
      6          6           0       -2.123311   -2.696924   -0.814987
      7          6           0       -5.426660   -0.985795   -1.516766
      8          6           0       -3.764669   -3.290482   -2.646921
      9          6           0        2.117696    2.700188    0.812944
     10          6           0        3.282145    2.493746    1.476173
     11          6           0        4.097187    1.365103    0.933957
     12          6           0        3.525031    0.735456   -0.119555
     13          6           0        3.750968    3.301259    2.649455
     14          6           0        5.418418    0.992919    1.535361
     15          1           0       -3.972633    0.086151    0.688446
     16          1           0       -1.390017   -3.462190   -1.065494
     17          1           0       -6.117257   -1.844950   -1.528296
     18          1           0       -5.897372   -0.164896   -0.959586
     19          1           0       -5.303934   -0.662500   -2.564394
     20          1           0       -3.911334   -2.646339   -3.530013
     21          1           0       -3.048082   -4.080259   -2.909223
     22          1           0       -4.739329   -3.760990   -2.435765
     23          1           0        1.383122    3.466010    1.057925
     24          1           0        3.975803   -0.085606   -0.674711
     25          1           0        4.724425    3.774899    2.438900
     26          1           0        3.030859    4.089192    2.908136
     27          1           0        3.898257    2.659935    3.534645
     28          1           0        6.108908    1.852142    1.547774
     29          1           0        5.289931    0.673201    2.583425
     30          1           0        5.892146    0.170131    0.983524
     31         78           0        0.000656   -0.000358   -0.001107
     32          6           0        1.980275    2.202048   -2.219214
     33          6           0       -1.975009   -2.206151    2.218384
     34         50           0       -1.648194    2.117068    0.195680
     35         17           0       -3.119882    2.422878   -1.701939
     36         17           0       -0.944971    4.434129    0.455796
     37         17           0       -3.231471    2.237043    2.040035
     38          6           0       -1.970256   -1.050303    3.232971
     39          1           0       -1.052724   -0.446118    3.154908
     40          1           0       -2.831593   -0.378726    3.112525
     41          1           0       -2.009699   -1.473371    4.250468
     42          6           0       -3.272151   -3.025754    2.334371
     43          1           0       -3.312472   -3.479416    3.338515
     44          1           0       -4.169138   -2.402552    2.210824
     45          1           0       -3.309403   -3.841919    1.597340
     46          6           0       -0.762744   -3.114966    2.463260
     47          1           0       -0.690428   -3.932692    1.733191
     48          1           0        0.185142   -2.556460    2.463325
     49          1           0       -0.863505   -3.567105    3.463845
     50          6           0        1.991276    1.044117   -3.231404
     51          1           0        2.857482    0.380292   -3.104635
     52          1           0        1.078426    0.432490   -3.157633
     53          1           0        2.032994    1.465645   -4.249458
     54          6           0        0.761267    3.099414   -2.473696
     55          1           0       -0.181091    2.531364   -2.478924
     56          1           0        0.676159    3.917767   -1.745585
     57          1           0        0.864442    3.550966   -3.474310
     58          6           0        3.270938    3.032649   -2.329214
     59          1           0        3.317562    3.477493   -3.337072
     60          1           0        3.292366    3.855743   -1.599120
     61          1           0        4.172625    2.419194   -2.190303
     62         50           0        1.648873   -2.117833   -0.198523
     63         17           0        3.110789   -2.428286    1.706170
     64         17           0        3.244908   -2.235985   -2.031576
     65         17           0        0.942028   -4.431910   -0.472404
 ---------------------------------------------------------------------

 SCF Done:  E(RPBE-PBE) =  -33295.4293346     A.U. after   10 cycles

      1  P    Isotropic =   232.1848   Anisotropy =    72.0811

      2  P    Isotropic =   230.6602   Anisotropy =    73.0861

      3  C    Isotropic =    39.0147   Anisotropy =   123.1666

      4  C    Isotropic =    10.6909   Anisotropy =   149.1871

      5  C    Isotropic =    20.1904   Anisotropy =   189.5471

      6  C    Isotropic =    46.8245   Anisotropy =   117.9988

      7  C    Isotropic =   165.2430   Anisotropy =    23.8899

      8  C    Isotropic =   161.7075   Anisotropy =    33.6723

      9  C    Isotropic =    55.9940   Anisotropy =   128.4928

     10  C    Isotropic =    32.2602   Anisotropy =   189.3415

     11  C    Isotropic =    18.2672   Anisotropy =   138.8838

     12  C    Isotropic =    43.8248   Anisotropy =   128.0412

     13  C    Isotropic =   158.9550   Anisotropy =    42.5025

     14  C    Isotropic =   164.5510   Anisotropy =    26.6212

     15  H    Isotropic =    23.4399   Anisotropy =     8.2757

     16  H    Isotropic =    23.5726   Anisotropy =     9.7934

     17  H    Isotropic =    28.5979   Anisotropy =    10.9100

     18  H    Isotropic =    29.0306   Anisotropy =     6.3308

     19  H    Isotropic =    29.2792   Anisotropy =     7.2438

     20  H    Isotropic =    29.2341   Anisotropy =     7.6185

     21  H    Isotropic =    28.8933   Anisotropy =     6.8965

     22  H    Isotropic =    29.0241   Anisotropy =    10.0751

     23  H    Isotropic =    23.9580   Anisotropy =     9.3488

     24  H    Isotropic =    23.6165   Anisotropy =     8.4569

     25  H    Isotropic =    29.9163   Anisotropy =     8.7376

     26  H    Isotropic =    29.0680   Anisotropy =     6.6608

     27  H    Isotropic =    29.2327   Anisotropy =     7.6454

     28  H    Isotropic =    29.1442   Anisotropy =    10.1201

     29  H    Isotropic =    29.2804   Anisotropy =     7.0026

     30  H    Isotropic =    29.3324   Anisotropy =     5.7211

     31  Pt   Isotropic =  3693.4125   Anisotropy =  1470.8345

     32  C    Isotropic =   120.6731   Anisotropy =    50.4055

     33  C    Isotropic =   122.5702   Anisotropy =    47.4920

     34  Sn   Isotropic =  2147.3322   Anisotropy =   754.7892

     35  Cl   Isotropic =   736.4033   Anisotropy =   325.9224

     36  Cl   Isotropic =   690.7942   Anisotropy =   333.2989

     37  Cl   Isotropic =   697.2808   Anisotropy =   334.3363

     38  C    Isotropic =   146.2868   Anisotropy =    44.3014

     39  H    Isotropic =    30.4936   Anisotropy =     5.0910

     40  H    Isotropic =    29.3563   Anisotropy =     7.8277

     41  H    Isotropic =    30.0119   Anisotropy =    11.3792

     42  C    Isotropic =   154.7285   Anisotropy =    55.7342

     43  H    Isotropic =    30.5531   Anisotropy =    13.2216

     44  H    Isotropic =    30.2399   Anisotropy =     7.8331

     45  H    Isotropic =    30.3308   Anisotropy =     7.8802

     46  C    Isotropic =   145.7456   Anisotropy =    44.4598

     47  H    Isotropic =    29.2599   Anisotropy =     7.7050

     48  H    Isotropic =    30.0178   Anisotropy =     8.9862

     49  H    Isotropic =    29.9877   Anisotropy =    10.6609

     50  C    Isotropic =   146.2145   Anisotropy =    45.6758

     51  H    Isotropic =    29.3851   Anisotropy =     8.0809

     52  H    Isotropic =    30.6209   Anisotropy =     4.7168

     53  H    Isotropic =    29.8457   Anisotropy =    11.6162

     54  C    Isotropic =   145.5395   Anisotropy =    45.9036

     55  H    Isotropic =    30.1952   Anisotropy =     8.3408

     56  H    Isotropic =    29.3064   Anisotropy =     8.0274

     57  H    Isotropic =    29.8160   Anisotropy =    10.8303

     58  C    Isotropic =   153.6715   Anisotropy =    57.0836

     59  H    Isotropic =    30.5354   Anisotropy =    12.9916

     60  H    Isotropic =    30.3819   Anisotropy =     7.4509

     61  H    Isotropic =    30.2997   Anisotropy =     7.4495

     62  Sn   Isotropic =  2145.4719   Anisotropy =   755.5077

     63  Cl   Isotropic =   736.4206   Anisotropy =   325.3952

     64  Cl   Isotropic =   696.9257   Anisotropy =   334.1337

     65  Cl   Isotropic =   691.3173   Anisotropy =   333.4225

 The electronic state is 1-A.
 Alpha  occ. eigenvalues -- ******************************-427.55782-414.88841
 Alpha  occ. eigenvalues -- -414.88774-414.88512-149.66993-149.66958-141.94810
 Alpha  occ. eigenvalues -- -141.94800-141.94774-141.94764-141.94736-141.94701
 Alpha  occ. eigenvalues -- -100.56480-100.56459-100.56456-100.56451-100.56448
 Alpha  occ. eigenvalues -- -100.56427 -99.93824 -92.09690 -92.09591 -92.09167
 Alpha  occ. eigenvalues --  -79.05569 -79.05468 -79.05228 -79.05179 -79.05107
 Alpha  occ. eigenvalues --  -76.31890 -76.31842 -28.83356 -28.83325 -25.17998
 Alpha  occ. eigenvalues --  -25.17971 -25.17967 -25.17939 -25.17765 -25.17733
 Alpha  occ. eigenvalues --  -20.85285 -17.72882 -17.72882 -17.72850 -17.72849
 Alpha  occ. eigenvalues --  -17.72742 -17.72727 -17.72710 -17.72694 -17.72688
 Alpha  occ. eigenvalues --  -17.72656 -17.42144 -17.41951 -17.41071 -11.60515
 Alpha  occ. eigenvalues --  -11.60155 -11.59650 -11.59560 -11.59398  -9.94278
 Alpha  occ. eigenvalues --   -9.94236  -9.93225  -9.93020  -9.92782  -9.92656
 Alpha  occ. eigenvalues --   -9.90795  -9.90772  -9.90734  -9.90672  -9.89775
 Alpha  occ. eigenvalues --   -9.89709  -9.89545  -9.89508  -9.89070  -9.89065
 Alpha  occ. eigenvalues --   -9.89049  -9.89046  -9.89002  -9.89001  -9.14341
 Alpha  occ. eigenvalues --   -9.14327  -9.14325  -9.14323  -9.14323  -9.14301
 Alpha  occ. eigenvalues --   -6.98141  -6.98124  -6.98123  -6.98123  -6.98121
 Alpha  occ. eigenvalues --   -6.98099  -6.97529  -6.97518  -6.97514  -6.97512
 Alpha  occ. eigenvalues --   -6.97512  -6.97507  -6.97493  -6.97491  -6.97489
 Alpha  occ. eigenvalues --   -6.97487  -6.97487  -6.97469  -6.34887  -6.34850
 Alpha  occ. eigenvalues --   -4.57417  -4.57378  -4.57353  -4.57316  -4.57219
 Alpha  occ. eigenvalues --   -4.57182  -4.52047  -4.52021  -3.25506  -3.25481
 Alpha  occ. eigenvalues --   -3.25445  -3.25420  -3.25089  -3.25064  -3.15396
 Alpha  occ. eigenvalues --   -3.15370  -3.14870  -3.14614  -3.14422  -3.14342
 Alpha  occ. eigenvalues --   -3.14275  -2.88197  -1.83324  -1.82931  -1.80494
 Alpha  occ. eigenvalues --   -1.04533  -1.04515  -1.04509  -1.04491  -1.04169
 Alpha  occ. eigenvalues --   -1.04145  -1.04108  -1.04084  -1.04040  -1.03991
 Alpha  occ. eigenvalues --   -0.79731  -0.79662  -0.75672  -0.75652  -0.73321
 Alpha  occ. eigenvalues --   -0.73300  -0.71599  -0.71590  -0.71530  -0.71494
 Alpha  occ. eigenvalues --   -0.69980  -0.69926  -0.67987  -0.67899  -0.63248
 Alpha  occ. eigenvalues --   -0.63227  -0.63122  -0.63106  -0.61673  -0.61645
 Alpha  occ. eigenvalues --   -0.59180  -0.58832  -0.53013  -0.52944  -0.49129
 Alpha  occ. eigenvalues --   -0.48814  -0.46797  -0.46766  -0.44704  -0.44287
 Alpha  occ. eigenvalues --   -0.43464  -0.42929  -0.42332  -0.41887  -0.41284
 Alpha  occ. eigenvalues --   -0.40724  -0.40257  -0.40198  -0.39783  -0.39755
 Alpha  occ. eigenvalues --   -0.39169  -0.38120  -0.37057  -0.36943  -0.36654
 Alpha  occ. eigenvalues --   -0.36626  -0.36469  -0.36269  -0.35943  -0.35735
 Alpha  occ. eigenvalues --   -0.35574  -0.35486  -0.34697  -0.33958  -0.33594
 Alpha  occ. eigenvalues --   -0.33471  -0.33334  -0.33299  -0.33108  -0.32929
 Alpha  occ. eigenvalues --   -0.32532  -0.32224  -0.32069  -0.31982  -0.31666
 Alpha  occ. eigenvalues --   -0.31303  -0.31095  -0.30934  -0.30884  -0.30873
 Alpha  occ. eigenvalues --   -0.29661  -0.29220  -0.28954  -0.28587  -0.28479
 Alpha  occ. eigenvalues --   -0.28304  -0.28263  -0.28150  -0.28070  -0.27969
 Alpha  occ. eigenvalues --   -0.27122  -0.27015  -0.26824  -0.26798  -0.26729
 Alpha  occ. eigenvalues --   -0.26503  -0.26303  -0.24409  -0.23584  -0.23473
 Alpha  occ. eigenvalues --   -0.21969  -0.21642
 Alpha virt. eigenvalues --   -0.13443  -0.10758  -0.09371  -0.06693  -0.05397
 Alpha virt. eigenvalues --   -0.05027  -0.04732  -0.04038  -0.02831  -0.02302
 Alpha virt. eigenvalues --   -0.01780  -0.01041  -0.00856  -0.00151   0.00135

 Mulliken charges:
               1
     1  P   -1.024931
     2  P   -1.018588
     3  C    0.243844
     4  C   -0.264334
     5  C   -0.531136
     6  C    0.504856
     7  C   -0.084528
     8  C   -0.130203
     9  C    0.505837
    10  C   -0.534073
    11  C   -0.270924
    12  C    0.242429
    13  C   -0.130449
    14  C   -0.085252
    15  H    0.080842
    16  H    0.080019
    17  H    0.139602
    18  H    0.121783
    19  H    0.129329
    20  H    0.138125
    21  H    0.127585
    22  H    0.140090
    23  H    0.080685
    24  H    0.081164
    25  H    0.140645
    26  H    0.128026
    27  H    0.138665
    28  H    0.139947
    29  H    0.129671
    30  H    0.122310
    31  Pt   0.766199
    32  C   -0.698412
    33  C   -0.700954
    34  Sn   0.314716
    35  Cl  -0.222213
    36  Cl  -0.174889
    37  Cl  -0.204211
    38  C    0.052971
    39  H    0.049329
    40  H    0.086695
    41  H    0.116512
    42  C   -0.002040
    43  H    0.124636
    44  H    0.097390
    45  H    0.093106
    46  C    0.076160
    47  H    0.083847
    48  H    0.040420
    49  H    0.115106
    50  C    0.052311
    51  H    0.086909
    52  H    0.049162
    53  H    0.116457
    54  C    0.075051
    55  H    0.041276
    56  H    0.083272
    57  H    0.115074
    58  C   -0.002658
    59  H    0.124848
    60  H    0.093350
    61  H    0.097282
    62  Sn   0.314270
    63  Cl  -0.223111
    64  Cl  -0.203381
    65  Cl  -0.175516
 Sum of Mulliken charges =   0.00000

 Dipole moment (field-independent basis, Debye):
    X=             -0.0455    Y=             -0.0017    Z=             -0.0493  Tot=              0.0671
 Quadrupole moment (field-independent basis, Debye-Ang):
   XX=           -296.7261   YY=           -346.4393   ZZ=           -300.7202
   XY=             65.9766   XZ=             11.6235   YZ=             -4.6456

 Normal termination of Gaussian 09 at Sat Nov  2 16:17:08 2019.
