 Gaussian 09, Revision A.02,
 Gaussian 09:  EM64L-G09RevA.02 11-Jun-2009

 ----------------------------------------------------------------------
 #PBEPBE/gen scf=(maxcycle=500,conver=4) NMR=GIAO Scrf=(solvent=Dichlor
 omethane)
 ----------------------------------------------------------------------

 ------------
 estrutura 57
 ------------
 Symbolic Z-matrix:
 Charge =  0 Multiplicity = 1

                         Standard orientation:
 ---------------------------------------------------------------------
 Center     Atomic      Atomic             Coordinates (Angstroms)
 Number     Number       Type             X           Y           Z
 ---------------------------------------------------------------------
      1         15           0        2.215184   -1.039529   -0.323836
      2         15           0       -2.441729   -0.451579    0.537821
      3          6           0        3.427028    0.305351   -0.232405
      4          6           0        4.317838    0.065775    0.760060
      5          6           0        4.098611   -1.232247    1.470315
      6          6           0        3.050897   -1.948987    0.994915
      7          6           0        5.434674    0.987903    1.149565
      8          6           0        4.979432   -1.655907    2.608382
      9          6           0       -3.436322    0.484315   -0.652909
     10          6           0       -4.286010   -0.344160   -1.307073
     11          6           0       -4.217306   -1.768415   -0.852502
     12          6           0       -3.310657   -1.986989    0.129224
     13          6           0       -5.226945    0.081094   -2.395285
     14          6           0       -5.088784   -2.825163   -1.464937
     15          1           0        3.424167    1.187005   -0.872845
     16          1           0        2.699519   -2.899107    1.393875
     17          1           0        6.412384    0.484329    1.066986
     18          1           0        5.451582    1.885760    0.516581
     19          1           0        5.332173    1.308505    2.200176
     20          1           0        4.947592   -0.919442    3.427746
     21          1           0        4.673912   -2.631406    3.008756
     22          1           0        6.032488   -1.726312    2.289873
     23          1           0       -3.325521    1.550733   -0.844935
     24          1           0       -3.083530   -2.952581    0.576569
     25          1           0       -6.274090   -0.124994   -2.115112
     26          1           0       -5.131524    1.154967   -2.610465
     27          1           0       -5.034622   -0.478345   -3.327173
     28          1           0       -4.883025   -2.931630   -2.543791
     29          1           0       -4.930295   -3.801388   -0.986082
     30          1           0       -6.155719   -2.561786   -1.372734
     31         78           0       -0.092590   -0.590235    0.147481
     32          6           0       -2.937967    0.066245    2.302186
     33          6           0        2.479023   -1.934296   -1.989598
     34         50           0        0.213695    1.940840   -0.348399
     35         17           0        1.385060    3.085947    1.429202
     36         17           0       -1.599043    3.530693   -0.626593
     37         17           0        1.510283    2.661976   -2.271193
     38         17           0       -0.227268   -2.907847    0.913008
     39          6           0        1.738683   -1.133555   -3.075611
     40          1           0        0.653093   -1.105401   -2.884938
     41          1           0        2.098033   -0.095237   -3.150963
     42          1           0        1.901304   -1.619466   -4.052524
     43          6           0        3.984956   -1.999682   -2.299805
     44          1           0        4.127874   -2.564450   -3.236370
     45          1           0        4.426631   -1.000432   -2.436357
     46          1           0        4.544005   -2.522152   -1.506387
     47          6           0        1.902411   -3.357611   -1.900502
     48          1           0        2.430767   -3.972399   -1.155500
     49          1           0        0.835496   -3.353601   -1.640638
     50          1           0        2.019953   -3.844234   -2.884350
     51          6           0       -2.352160   -0.960495    3.287605
     52          1           0       -2.765488   -1.968166    3.128918
     53          1           0       -1.256739   -1.023904    3.209499
     54          1           0       -2.605563   -0.649985    4.315180
     55          6           0       -2.352202    1.460011    2.587379
     56          1           0       -1.251430    1.451620    2.583097
     57          1           0       -2.697558    2.218018    1.868173
     58          1           0       -2.673773    1.783207    3.591311
     59          6           0       -4.471185    0.102397    2.415759
     60          1           0       -4.744671    0.362052    3.452184
     61          1           0       -4.914832    0.859214    1.752002
     62          1           0       -4.924747   -0.872654    2.183115
 ---------------------------------------------------------------------

 SCF Done:  E(RPBE-PBE) =  -26395.4025751     A.U. after    9 cycles

  1  P    Isotropic =   234.6820   Anisotropy =    28.1110

  2  P    Isotropic =   225.9255   Anisotropy =    39.5831

  3  C    Isotropic =    42.4097   Anisotropy =   129.3512

  4  C    Isotropic =    13.1611   Anisotropy =   164.9819

  5  C    Isotropic =    18.3969   Anisotropy =   197.3620

  6  C    Isotropic =    45.6003   Anisotropy =   115.4013

  7  C    Isotropic =   162.8468   Anisotropy =    28.9146

  8  C    Isotropic =   163.3602   Anisotropy =    30.4104

  9  C    Isotropic =    51.1630   Anisotropy =   129.0088

 10  C    Isotropic =    17.9295   Anisotropy =   158.5264

 11  C    Isotropic =    19.9991   Anisotropy =   177.8542

 12  C    Isotropic =    45.4079   Anisotropy =   121.5501

 13  C    Isotropic =   164.4379   Anisotropy =    29.3937

 14  C    Isotropic =   163.0907   Anisotropy =    32.5845

 15  H    Isotropic =    24.1446   Anisotropy =     8.8834

 16  H    Isotropic =    23.8004   Anisotropy =    11.3182

 17  H    Isotropic =    28.6214   Anisotropy =    10.5943

 18  H    Isotropic =    29.0658   Anisotropy =     6.1866

 19  H    Isotropic =    29.3312   Anisotropy =     7.4248

 20  H    Isotropic =    29.2399   Anisotropy =     7.6099

 21  H    Isotropic =    28.9178   Anisotropy =     7.4563

 22  H    Isotropic =    28.8372   Anisotropy =     9.8531

 23  H    Isotropic =    24.1882   Anisotropy =     9.1265

 24  H    Isotropic =    23.5226   Anisotropy =    11.1903

 25  H    Isotropic =    28.9447   Anisotropy =     9.7421

 26  H    Isotropic =    29.2055   Anisotropy =     6.1329

 27  H    Isotropic =    29.3032   Anisotropy =     7.8134

 28  H    Isotropic =    29.2086   Anisotropy =     7.8396

 29  H    Isotropic =    28.9534   Anisotropy =     7.1685

 30  H    Isotropic =    29.0354   Anisotropy =     9.2642

 31  Pt   Isotropic =  3151.2341   Anisotropy =  1792.5363

 32  C    Isotropic =   126.6928   Anisotropy =    42.3932

 33  C    Isotropic =   125.9984   Anisotropy =    44.7255

 34  Sn   Isotropic =  2089.2473   Anisotropy =   905.5670

 35  Cl   Isotropic =   736.2763   Anisotropy =   338.4652

 36  Cl   Isotropic =   709.5677   Anisotropy =   331.1839

 37  Cl   Isotropic =   714.5273   Anisotropy =   339.1812

 38  Cl   Isotropic =   926.9699   Anisotropy =   650.7968

 39  C    Isotropic =   149.2927   Anisotropy =    38.9436

 40  H    Isotropic =    30.2220   Anisotropy =     7.0499

 41  H    Isotropic =    29.6009   Anisotropy =     7.0614

 42  H    Isotropic =    30.4764   Anisotropy =    10.8615

 43  C    Isotropic =   155.0595   Anisotropy =    51.6385

 44  H    Isotropic =    30.8244   Anisotropy =    12.4393

 45  H    Isotropic =    30.2775   Anisotropy =     7.2833

 46  H    Isotropic =    30.5129   Anisotropy =     7.9640

 47  C    Isotropic =   150.1553   Anisotropy =    39.4032

 48  H    Isotropic =    30.1690   Anisotropy =     8.3776

 49  H    Isotropic =    29.2936   Anisotropy =     8.3376

 50  H    Isotropic =    30.4826   Anisotropy =    11.0123

 51  C    Isotropic =   148.8998   Anisotropy =    41.7324

 52  H    Isotropic =    30.0009   Anisotropy =     8.2783

 53  H    Isotropic =    29.9490   Anisotropy =     6.6663

 54  H    Isotropic =    30.2534   Anisotropy =    11.3079

 55  C    Isotropic =   147.9378   Anisotropy =    42.4980

 56  H    Isotropic =    30.2344   Anisotropy =     7.8332

 57  H    Isotropic =    29.6770   Anisotropy =     6.2437

 58  H    Isotropic =    30.2235   Anisotropy =    10.6043

 59  C    Isotropic =   155.3158   Anisotropy =    55.5854

 60  H    Isotropic =    30.7078   Anisotropy =    12.5870

 61  H    Isotropic =    30.3882   Anisotropy =     7.3222

 62  H    Isotropic =    30.4001   Anisotropy =     7.7174

 The electronic state is 1-A.
 Alpha  occ. eigenvalues -- ********************-427.54691-414.87762-414.87679
 Alpha  occ. eigenvalues -- -414.87409-149.66520-141.94334-141.94327-141.94256
 Alpha  occ. eigenvalues -- -100.56449-100.56426-100.56244-100.53001 -99.92736
 Alpha  occ. eigenvalues --  -92.08640 -92.08477 -92.08067 -79.04506 -79.04379
 Alpha  occ. eigenvalues --  -79.04157 -79.04062 -79.04009 -76.30576 -76.30569
 Alpha  occ. eigenvalues --  -28.82915 -25.17558 -25.17539 -25.17310 -20.84193
 Alpha  occ. eigenvalues --  -17.72444 -17.72443 -17.72288 -17.72278 -17.72234
 Alpha  occ. eigenvalues --  -17.41123 -17.40813 -17.39953 -11.59492 -11.59045
 Alpha  occ. eigenvalues --  -11.58596 -11.58399 -11.58291  -9.93740  -9.93662
 Alpha  occ. eigenvalues --   -9.92355  -9.92332  -9.92268  -9.92117  -9.90201
 Alpha  occ. eigenvalues --   -9.90161  -9.90141  -9.90079  -9.89483  -9.89431
 Alpha  occ. eigenvalues --   -9.89427  -9.89296  -9.88854  -9.88768  -9.88737
 Alpha  occ. eigenvalues --   -9.88694  -9.88626  -9.88410  -9.14304  -9.14277
 Alpha  occ. eigenvalues --   -9.14101  -9.10818  -6.98106  -6.98075  -6.97900
 Alpha  occ. eigenvalues --   -6.97486  -6.97478  -6.97466  -6.97447  -6.97290
 Alpha  occ. eigenvalues --   -6.97269  -6.94597  -6.94053  -6.93971  -6.33688
 Alpha  occ. eigenvalues --   -6.33682  -4.56219  -4.56211  -4.56152  -4.56146
 Alpha  occ. eigenvalues --   -4.55993  -4.55989  -4.51662  -3.25120  -3.25079
 Alpha  occ. eigenvalues --   -3.24700  -3.14352  -3.14312  -3.13820  -3.13492
 Alpha  occ. eigenvalues --   -3.13354  -3.13193  -3.13157  -2.87164  -1.82410
 Alpha  occ. eigenvalues --   -1.81895  -1.79384  -1.04179  -1.04165  -1.03794
 Alpha  occ. eigenvalues --   -1.03752  -1.03685  -0.79049  -0.79015  -0.75119
 Alpha  occ. eigenvalues --   -0.75039  -0.73157  -0.71467  -0.71356  -0.69494
 Alpha  occ. eigenvalues --   -0.69446  -0.68379  -0.67367  -0.67351  -0.62840
 Alpha  occ. eigenvalues --   -0.62730  -0.62668  -0.62548  -0.61161  -0.61132
 Alpha  occ. eigenvalues --   -0.58517  -0.58182  -0.52380  -0.52312  -0.48484
 Alpha  occ. eigenvalues --   -0.48174  -0.46105  -0.45992  -0.43871  -0.43691
 Alpha  occ. eigenvalues --   -0.42979  -0.41833  -0.41524  -0.40770  -0.40192
 Alpha  occ. eigenvalues --   -0.39798  -0.39668  -0.39356  -0.39292  -0.38768
 Alpha  occ. eigenvalues --   -0.37673  -0.36422  -0.36348  -0.36298  -0.36271
 Alpha  occ. eigenvalues --   -0.36063  -0.35858  -0.35459  -0.35332  -0.35153
 Alpha  occ. eigenvalues --   -0.34916  -0.34537  -0.33518  -0.33246  -0.32968
 Alpha  occ. eigenvalues --   -0.32754  -0.32598  -0.32354  -0.31703  -0.31582
 Alpha  occ. eigenvalues --   -0.31473  -0.31083  -0.30759  -0.30602  -0.30487
 Alpha  occ. eigenvalues --   -0.30327  -0.30114  -0.29190  -0.28813  -0.28380
 Alpha  occ. eigenvalues --   -0.28238  -0.28172  -0.27917  -0.27577  -0.26902
 Alpha  occ. eigenvalues --   -0.26687  -0.26536  -0.25888  -0.24540  -0.24409
 Alpha  occ. eigenvalues --   -0.22950  -0.22318  -0.22108  -0.21401  -0.21243
 Alpha virt. eigenvalues --   -0.12497  -0.09344  -0.08187  -0.05296  -0.04212
 Alpha virt. eigenvalues --   -0.03293  -0.02064  -0.01588  -0.00864  -0.00756
 Alpha virt. eigenvalues --    0.00074   0.00274   0.00466   0.00525   0.00731

 Mulliken atomic charges:
              1
     1  P   -0.890029
     2  P   -0.629981
     3  C    0.262263
     4  C   -0.303871
     5  C   -0.444261
     6  C    0.353380
     7  C   -0.125402
     8  C   -0.149860
     9  C    0.231718
    10  C   -0.430847
    11  C   -0.258986
    12  C    0.235678
    13  C   -0.149407
    14  C   -0.167220
    15  H    0.097467
    16  H    0.116489
    17  H    0.140417
    18  H    0.124742
    19  H    0.135227
    20  H    0.138454
    21  H    0.131831
    22  H    0.139928
    23  H    0.091515
    24  H    0.111896
    25  H    0.141382
    26  H    0.127997
    27  H    0.140351
    28  H    0.140684
    29  H    0.132484
    30  H    0.141141
    31  Pt   0.787175
    32  C   -0.693536
    33  C   -0.675820
    34  Sn   0.307089
    35  Cl  -0.233128
    36  Cl  -0.183471
    37  Cl  -0.218242
    38  Cl  -0.461007
    39  C    0.049827
    40  H    0.057933
    41  H    0.084771
    42  H    0.116739
    43  C   -0.054425
    44  H    0.124689
    45  H    0.103886
    46  H    0.102083
    47  C    0.014896
    48  H    0.097839
    49  H    0.074763
    50  H    0.120304
    51  C    0.030516
    52  H    0.098049
    53  H    0.065274
    54  H    0.118580
    55  C    0.037848
    56  H    0.053891
    57  H    0.084834
    58  H    0.118697
    59  C   -0.048796
    60  H    0.127554
    61  H    0.102124
    62  H    0.103885
 Sum of Mulliken atomic charges =   0.00000

 Dipole moment (field-independent basis, Debye):
    X=             -1.4128    Y=             -7.1603    Z=             -0.0498  Tot=              7.2986
 Quadrupole moment (field-independent basis, Debye-Ang):
   XX=           -200.3297   YY=           -293.2132   ZZ=           -249.2534
   XY=             -3.3782   XZ=              8.4275   YZ=             12.0295

 Normal termination of Gaussian 09 at Sat Jun 15 12:45:03 2019.
