 Gaussian 09, Revision A.02,
 Gaussian 09:  EM64L-G09RevA.02 11-Jun-2009

 ----------------------------------------------------------------------
 #PBEPBE/gen scf=(maxcycle=500,conver=4) NMR=GIAO Scrf=(solvent=Dichlor
 omethane)
 ----------------------------------------------------------------------

 ------------
 estrutura 55
 ------------
 Symbolic Z-matrix:
 Charge =  0 Multiplicity = 1

                         Standard orientation:
 ---------------------------------------------------------------------
 Center     Atomic      Atomic             Coordinates (Angstroms)
 Number     Number       Type             X           Y           Z
 ---------------------------------------------------------------------
      1         15           0        1.548757    1.779391    0.597815
      2         15           0       -1.173308   -1.739273   -1.136692
      3          6           0        3.238943    1.721139   -0.051212
      4          6           0        3.462592    2.781347   -0.863561
      5          6           0        2.312799    3.737729   -0.945973
      6          6           0        1.239965    3.371819   -0.204212
      7          6           0        4.728520    3.018643   -1.633889
      8          6           0        2.388523    4.976045   -1.788828
      9          6           0       -1.890903   -2.977635   -0.041976
     10          6           0       -3.245966   -2.915200   -0.093023
     11          6           0       -3.768229   -1.888245   -1.049514
     12          6           0       -2.797451   -1.215075   -1.722337
     13          6           0       -4.150573   -3.781778    0.736246
     14          6           0       -5.237424   -1.640858   -1.220803
     15          1           0        3.958027    0.925429    0.146340
     16          1           0        0.312342    3.935209   -0.106519
     17          1           0        5.167517    4.001122   -1.395580
     18          1           0        5.473415    2.239434   -1.424735
     19          1           0        4.531093    3.020003   -2.719096
     20          1           0        3.303462    5.554080   -1.575141
     21          1           0        2.428617    4.711303   -2.860593
     22          1           0        1.514890    5.621990   -1.627214
     23          1           0       -1.302784   -3.647501    0.583266
     24          1           0       -2.968563   -0.425645   -2.453929
     25          1           0       -5.181719   -3.812175    0.352884
     26          1           0       -3.765616   -4.811122    0.775332
     27          1           0       -4.191088   -3.407257    1.775250
     28          1           0       -5.723231   -2.486237   -1.738426
     29          1           0       -5.731617   -1.538491   -0.243225
     30          1           0       -5.421029   -0.729498   -1.803941
     31         78           0        0.138554   -0.012185   -0.131934
     32         50           0       -2.063845    1.426270    0.314839
     33         17           0       -1.811907    3.437104    1.663770
     34         17           0       -3.751950    0.359887    1.682964
     35         17           0       -3.395782    2.364081   -1.481880
     36          6           0       -0.339821   -2.604202   -2.529498
     37          1           0        0.479104   -3.225155   -2.139465
     38          1           0       -1.073821   -3.247817   -3.035398
     39          1           0        0.060966   -1.860856   -3.233864
     40          6           0        1.617037    2.022124    2.414760
     41          1           0        1.854388    1.058812    2.885495
     42          1           0        2.393235    2.761474    2.654487
     43          1           0        0.635390    2.375697    2.755980
     44         50           0        2.122462   -1.723084    0.259218
     45         17           0        4.047931   -1.794013   -1.205250
     46         17           0        1.602831   -4.088232    0.362599
     47         17           0        3.222357   -1.423448    2.393218
 ---------------------------------------------------------------------

 SCF Done:  E(RPBE-PBE) =  -33059.8317557     A.U. after    9 cycles

  1  P    Isotropic =   272.1032   Anisotropy =    77.4173

  2  P    Isotropic =   279.2858   Anisotropy =    83.7629

  3  C    Isotropic =    49.0641   Anisotropy =   131.6140

  4  C    Isotropic =    19.1049   Anisotropy =   140.9467

  5  C    Isotropic =    21.0856   Anisotropy =   167.8681

  6  C    Isotropic =    39.6327   Anisotropy =   111.6678

  7  C    Isotropic =   163.9554   Anisotropy =    29.5802

  8  C    Isotropic =   162.2637   Anisotropy =    33.7564

  9  C    Isotropic =    53.2563   Anisotropy =   128.7904

 10  C    Isotropic =    17.7751   Anisotropy =   157.5333

 11  C    Isotropic =    20.7951   Anisotropy =   149.5877

 12  C    Isotropic =    43.7465   Anisotropy =   144.1080

 13  C    Isotropic =   165.3027   Anisotropy =    34.9760

 14  C    Isotropic =   161.0436   Anisotropy =    30.1976

 15  H    Isotropic =    24.8971   Anisotropy =     9.5373

 16  H    Isotropic =    23.7466   Anisotropy =    11.0929

 17  H    Isotropic =    29.1461   Anisotropy =     9.6711

 18  H    Isotropic =    29.2161   Anisotropy =     5.9287

 19  H    Isotropic =    29.2984   Anisotropy =     7.5816

 20  H    Isotropic =    29.0524   Anisotropy =     9.2345

 21  H    Isotropic =    29.1555   Anisotropy =     7.8060

 22  H    Isotropic =    29.0143   Anisotropy =     6.6549

 23  H    Isotropic =    24.6038   Anisotropy =     9.4912

 24  H    Isotropic =    24.4264   Anisotropy =     7.3107

 25  H    Isotropic =    29.1610   Anisotropy =     7.8841

 26  H    Isotropic =    29.0690   Anisotropy =     9.1961

 27  H    Isotropic =    29.1565   Anisotropy =     7.0378

 28  H    Isotropic =    29.1274   Anisotropy =    11.2016

 29  H    Isotropic =    29.1723   Anisotropy =     5.4776

 30  H    Isotropic =    29.2214   Anisotropy =     5.6427

 31  Pt   Isotropic =  3553.2470   Anisotropy =  1459.2882

 32  Sn   Isotropic =  2143.8580   Anisotropy =   720.7543

 33  Cl   Isotropic =   733.9231   Anisotropy =   299.1430

 34  Cl   Isotropic =   795.3375   Anisotropy =   305.1589

 35  Cl   Isotropic =   723.0937   Anisotropy =   364.0230

 36  C    Isotropic =   161.5673   Anisotropy =    44.8639

 37  H    Isotropic =    28.8951   Anisotropy =     7.5534

 38  H    Isotropic =    30.4045   Anisotropy =    14.3236

 39  H    Isotropic =    29.5135   Anisotropy =     8.9926

 40  C    Isotropic =   165.5300   Anisotropy =    39.2751

 41  H    Isotropic =    29.0465   Anisotropy =     7.4714

 42  H    Isotropic =    30.3688   Anisotropy =    13.8925

 43  H    Isotropic =    29.0276   Anisotropy =     8.9546

 44  Sn   Isotropic =  2117.0296   Anisotropy =   703.6911

 45  Cl   Isotropic =   740.0205   Anisotropy =   339.7747

 46  Cl   Isotropic =   739.3679   Anisotropy =   315.3922

 47  Cl   Isotropic =   756.2066   Anisotropy =   299.8320

 The electronic state is 1-A.
 Alpha  occ. eigenvalues -- ******************************-427.56118-414.89169
 Alpha  occ. eigenvalues -- -414.89089-414.88846-149.66945-149.66887-141.94753
 Alpha  occ. eigenvalues -- -141.94751-141.94701-141.94694-141.94688-141.94634
 Alpha  occ. eigenvalues -- -100.56938-100.56928-100.56763-100.56583-100.56459
 Alpha  occ. eigenvalues -- -100.56439 -99.94179 -92.10049 -92.09920 -92.09538
 Alpha  occ. eigenvalues --  -79.05912 -79.05810 -79.05594 -79.05527 -79.05468
 Alpha  occ. eigenvalues --  -76.32316 -76.32292 -28.83337 -28.83252 -25.17960
 Alpha  occ. eigenvalues --  -25.17955 -25.17885 -25.17865 -25.17755 -25.17670
 Alpha  occ. eigenvalues --  -20.85648 -17.72850 -17.72850 -17.72771 -17.72770
 Alpha  occ. eigenvalues --  -17.72716 -17.72713 -17.72672 -17.72640 -17.72627
 Alpha  occ. eigenvalues --  -17.72591 -17.42520 -17.42266 -17.41468 -11.60857
 Alpha  occ. eigenvalues --  -11.60500 -11.60043 -11.59917 -11.59783  -9.93275
 Alpha  occ. eigenvalues --   -9.93224  -9.93195  -9.93123  -9.91516  -9.91166
 Alpha  occ. eigenvalues --   -9.91050  -9.90962  -9.90931  -9.90799  -9.89767
 Alpha  occ. eigenvalues --   -9.89682  -9.89528  -9.89462  -9.14780  -9.14777
 Alpha  occ. eigenvalues --   -9.14606  -9.14432  -9.14309  -9.14298  -6.98571
 Alpha  occ. eigenvalues --   -6.98571  -6.98404  -6.98231  -6.98117  -6.98078
 Alpha  occ. eigenvalues --   -6.97969  -6.97968  -6.97960  -6.97953  -6.97797
 Alpha  occ. eigenvalues --   -6.97779  -6.97622  -6.97604  -6.97495  -6.97494
 Alpha  occ. eigenvalues --   -6.97479  -6.97475  -6.35380  -6.35340  -4.57892
 Alpha  occ. eigenvalues --   -4.57869  -4.57862  -4.57822  -4.57688  -4.57648
 Alpha  occ. eigenvalues --   -4.52075  -4.51945  -3.25499  -3.25484  -3.25375
 Alpha  occ. eigenvalues --   -3.25342  -3.25154  -3.25016  -3.15742  -3.15708
 Alpha  occ. eigenvalues --   -3.15242  -3.14983  -3.14820  -3.14709  -3.14659
 Alpha  occ. eigenvalues --   -2.88597  -1.83803  -1.83254  -1.80938  -1.04583
 Alpha  occ. eigenvalues --   -1.04574  -1.04419  -1.04403  -1.04198  -1.04177
 Alpha  occ. eigenvalues --   -1.04130  -1.04046  -1.04025  -1.03958  -0.79768
 Alpha  occ. eigenvalues --   -0.79737  -0.73581  -0.73219  -0.71996  -0.71821
 Alpha  occ. eigenvalues --   -0.71602  -0.71489  -0.70258  -0.70133  -0.70079
 Alpha  occ. eigenvalues --   -0.70074  -0.65514  -0.65501  -0.61921  -0.61782
 Alpha  occ. eigenvalues --   -0.57206  -0.56861  -0.51678  -0.51208  -0.47033
 Alpha  occ. eigenvalues --   -0.46911  -0.44671  -0.43797  -0.43446  -0.42864
 Alpha  occ. eigenvalues --   -0.41386  -0.40483  -0.40055  -0.40015  -0.39332
 Alpha  occ. eigenvalues --   -0.39157  -0.38733  -0.38672  -0.36953  -0.36949
 Alpha  occ. eigenvalues --   -0.36891  -0.36775  -0.36702  -0.36034  -0.35677
 Alpha  occ. eigenvalues --   -0.35056  -0.34624  -0.33967  -0.33695  -0.33387
 Alpha  occ. eigenvalues --   -0.33337  -0.32986  -0.32414  -0.32274  -0.32076
 Alpha  occ. eigenvalues --   -0.31790  -0.30461  -0.29880  -0.29428  -0.28978
 Alpha  occ. eigenvalues --   -0.28740  -0.28672  -0.28607  -0.28525  -0.28395
 Alpha  occ. eigenvalues --   -0.28231  -0.28020  -0.27454  -0.27373  -0.27188
 Alpha  occ. eigenvalues --   -0.27105  -0.26872  -0.26610  -0.24779  -0.23844
 Alpha  occ. eigenvalues --   -0.23242  -0.22231  -0.21533
 Alpha virt. eigenvalues --   -0.13518  -0.10157  -0.09302  -0.07128  -0.05428
 Alpha virt. eigenvalues --   -0.04973  -0.04145  -0.03703  -0.03010  -0.01965
 Alpha virt. eigenvalues --   -0.01359  -0.00838  -0.00386  -0.00256  -0.00052

 Mulliken atomic charges:
              1
     1  P   -0.186564
     2  P   -0.143932
     3  C    0.052959
     4  C   -0.468364
     5  C   -0.446802
     6  C    0.081665
     7  C   -0.139436
     8  C   -0.166492
     9  C    0.035450
    10  C   -0.401397
    11  C   -0.391298
    12  C   -0.035711
    13  C   -0.160290
    14  C   -0.078071
    15  H    0.119396
    16  H    0.103712
    17  H    0.144245
    18  H    0.129245
    19  H    0.140720
    20  H    0.142740
    21  H    0.142407
    22  H    0.134500
    23  H    0.121928
    24  H    0.127210
    25  H    0.134325
    26  H    0.139653
    27  H    0.130155
    28  H    0.154935
    29  H    0.120947
    30  H    0.114874
    31  Pt   0.891356
    32  Sn   0.233230
    33  Cl  -0.179262
    34  Cl  -0.227242
    35  Cl  -0.214884
    36  C   -0.265133
    37  H    0.105633
    38  H    0.133537
    39  H    0.110359
    40  C   -0.232251
    41  H    0.107325
    42  H    0.126524
    43  H    0.105612
    44  Sn   0.287234
    45  Cl  -0.223226
    46  Cl  -0.189825
    47  Cl  -0.221697
 Sum of Mulliken atomic charges =   0.00000

 Dipole moment (field-independent basis, Debye):
    X=              0.3100    Y=              1.2679    Z=             -6.0015  Tot=              6.1418
 Quadrupole moment (field-independent basis, Debye-Ang):
   XX=           -285.3326   YY=           -270.9707   ZZ=           -270.8258
   XY=             63.7079   XZ=              1.4955   YZ=             -1.1608

 Normal termination of Gaussian 09 at Sat Jun 15 11:07:04 2019.
