 Gaussian 09, Revision D.01,
 Gaussian 09:  EM64L-G09RevD.01 24-Apr-2013

 ----------------------------------------------------------------------
 #PBEPBE/gen scf=(maxcycle=500,conver=3) NMR=GIAO Scrf=(solvent=Dichlor
 omethane)
 ----------------------------------------------------------------------

 -------------
 estrutura 106
 -------------
 Symbolic Z-matrix:
 Charge =  0 Multiplicity = 1

                         Standard orientation:
 ---------------------------------------------------------------------
 Center     Atomic      Atomic             Coordinates (Angstroms)
 Number     Number       Type             X           Y           Z
 ---------------------------------------------------------------------
      1         78           0       -0.120810   -0.690380   -0.053373
      2         15           0       -2.508668   -0.468519    0.051437
      3          6           0       -3.393753    1.151976   -0.109412
      4          6           0       -3.811260    1.897176    1.004737
      5          6           0       -3.674905    1.640578   -1.397572
      6          6           0       -4.502254    3.101348    0.833910
      7          1           0       -3.607496    1.545123    2.015558
      8          6           0       -4.374444    2.837464   -1.564702
      9          1           0       -3.353034    1.082757   -2.279537
     10          6           0       -4.791422    3.571637   -0.449667
     11          1           0       -4.818209    3.669641    1.712532
     12          1           0       -4.591051    3.197720   -2.573072
     13          1           0       -5.338855    4.509113   -0.580573
     14          6           0       -2.997805   -1.082142    1.722319
     15          6           0       -3.996914   -2.044226    1.931535
     16          6           0       -2.315115   -0.555877    2.835619
     17          6           0       -4.318938   -2.456632    3.228740
     18          1           0       -4.523968   -2.490212    1.088154
     19          6           0       -2.641741   -0.967777    4.129544
     20          1           0       -1.524501    0.184028    2.693296
     21          6           0       -3.646943   -1.920603    4.330348
     22          1           0       -5.097836   -3.206146    3.374722
     23          1           0       -2.106554   -0.543891    4.982941
     24          1           0       -3.899645   -2.248486    5.342157
     25          6           0       -3.392804   -1.457786   -1.231019
     26          6           0       -4.800445   -1.464998   -1.270535
     27          6           0       -2.679405   -2.133676   -2.235022
     28          6           0       -5.478372   -2.153004   -2.279445
     29          1           0       -5.379277   -0.917537   -0.522785
     30          6           0       -3.362570   -2.811509   -3.251167
     31          1           0       -1.589053   -2.132654   -2.222896
     32          6           0       -4.758611   -2.828444   -3.273859
     33          1           0       -6.570735   -2.153273   -2.293646
     34          1           0       -2.792476   -3.326208   -4.029668
     35          1           0       -5.291581   -3.356872   -4.068540
     36         50           0        0.409515    1.868055   -0.254202
     37         17           0       -0.553366   -3.097998    0.278396
     38         15           0        2.235979   -1.085808   -0.032246
     39          6           0        2.793616   -2.838666    0.150753
     40          6           0        2.917335   -3.649889   -0.989671
     41          6           0        3.066173   -3.389082    1.413894
     42          6           0        3.316931   -4.983131   -0.869881
     43          1           0        2.706305   -3.244148   -1.980787
     44          6           0        3.465436   -4.724749    1.529533
     45          1           0        2.972871   -2.782636    2.316107
     46          6           0        3.594722   -5.523585    0.389561
     47          1           0        3.416108   -5.598845   -1.766035
     48          1           0        3.679459   -5.137722    2.519833
     49          1           0        3.911462   -6.565260    0.483215
     50          6           0        2.994120   -0.595608   -1.644063
     51          6           0        4.368916   -0.385263   -1.858387
     52          6           0        2.125649   -0.545728   -2.752282
     53          6           0        4.853305   -0.091973   -3.135011
     54          1           0        5.080266   -0.449757   -1.036354
     55          6           0        2.614200   -0.277169   -4.035493
     56          1           0        1.058916   -0.735876   -2.606369
     57          6           0        3.978260   -0.041293   -4.226124
     58          1           0        5.923687    0.091771   -3.274959
     59          1           0        1.915556   -0.248222   -4.876406
     60          1           0        4.367815    0.175529   -5.225508
     61          6           0        2.984515   -0.236932    1.433747
     62          6           0        4.271931    0.325564    1.495838
     63          6           0        2.189121   -0.214694    2.596875
     64          6           0        4.742337    0.894904    2.681366
     65          1           0        4.919271    0.349269    0.622568
     66          6           0        2.665744    0.342645    3.784749
     67          1           0        1.180828   -0.636685    2.574584
     68          6           0        3.945458    0.902708    3.831450
     69          1           0        5.741847    1.336301    2.701484
     70          1           0        2.030580    0.345568    4.675584
     71          1           0        4.317724    1.345095    4.757328
     72         17           0       -0.556037    2.941353    1.732773
     73          6           0        2.382998    2.825141   -0.434942
     74          1           0        2.939095    2.525677    0.466201
     75          1           0        2.828072    2.289336   -1.287993
     76         17           0       -0.669826    3.021674   -2.123075
     77          6           0        2.451846    4.339199   -0.652483
     78          1           0        3.492263    4.577566   -0.946225
     79          1           0        1.826382    4.630679   -1.514560
     80          6           0        2.089301    5.195965    0.567424
     81          1           0        1.009817    5.110104    0.772693
     82          1           0        2.594433    4.780242    1.459234
     83          6           0        2.477162    6.668170    0.415722
     84          1           0        1.991627    7.136086   -0.458109
     85          1           0        2.189294    7.250016    1.306524
     86          1           0        3.566998    6.778866    0.285521
 ---------------------------------------------------------------------

 SCF Done:  E(RPBE-PBE) =  -26699.9591111     A.U. after    8 cycles

      1  Pt   Isotropic =  3025.8764   Anisotropy =  1756.8273

      2  P    Isotropic =   293.2859   Anisotropy =   108.9691

      3  C    Isotropic =   203.8883   Anisotropy =   179.5746

      4  C    Isotropic =   197.9561   Anisotropy =   449.0932

      5  C    Isotropic =   185.2684   Anisotropy =   413.8580

      6  C    Isotropic =    -2.6313   Anisotropy =    62.3000

      7  H    Isotropic =    24.5089   Anisotropy =    12.6236

      8  C    Isotropic =     4.3696   Anisotropy =   118.8615

      9  H    Isotropic =    24.4120   Anisotropy =    20.8519

     10  C    Isotropic =   -93.0101   Anisotropy =   152.2343

     11  H    Isotropic =    20.2707   Anisotropy =    13.5205

     12  H    Isotropic =    20.7358   Anisotropy =    13.3834

     13  H    Isotropic =    19.5415   Anisotropy =    11.8983

     14  C    Isotropic =   160.8492   Anisotropy =   174.8876

     15  C    Isotropic =   167.8092   Anisotropy =   373.7750

     16  C    Isotropic =   141.7972   Anisotropy =   340.8200

     17  C    Isotropic =   -49.4044   Anisotropy =   142.3916

     18  H    Isotropic =    24.3278   Anisotropy =    11.9479

     19  C    Isotropic =    41.3723   Anisotropy =   111.1204

     20  H    Isotropic =    21.2249   Anisotropy =    13.3592

     21  C    Isotropic =   -80.0062   Anisotropy =   141.5887

     22  H    Isotropic =    20.4502   Anisotropy =    11.5217

     23  H    Isotropic =    20.4032   Anisotropy =    11.8307

     24  H    Isotropic =    18.9896   Anisotropy =    11.3210

     25  C    Isotropic =   128.8170   Anisotropy =   113.1127

     26  C    Isotropic =   191.3687   Anisotropy =   414.1369

     27  C    Isotropic =   110.0879   Anisotropy =   385.0427

     28  C    Isotropic =   -52.6454   Anisotropy =   144.5690

     29  H    Isotropic =    20.8988   Anisotropy =    17.2846

     30  C    Isotropic =   -33.9522   Anisotropy =    77.5803

     31  H    Isotropic =    21.6105   Anisotropy =    11.7277

     32  C    Isotropic =   -49.3027   Anisotropy =    81.2333

     33  H    Isotropic =    13.1466   Anisotropy =    19.9233

     34  H    Isotropic =    15.8817   Anisotropy =    16.5247

     35  H    Isotropic =     8.7589   Anisotropy =    24.6355

     36  Sn   Isotropic =  1916.6423   Anisotropy =   783.3347

     37  Cl   Isotropic =   822.5783   Anisotropy =   141.5000

     38  P    Isotropic =   264.9569   Anisotropy =    56.4476

     39  C    Isotropic =    25.4257   Anisotropy =   134.6180

     40  C    Isotropic =    50.7887   Anisotropy =   200.8490

     41  C    Isotropic =    49.9056   Anisotropy =   207.5476

     42  C    Isotropic =    25.3930   Anisotropy =   178.8017

     43  H    Isotropic =    25.2723   Anisotropy =    17.1100

     44  C    Isotropic =    30.6984   Anisotropy =   170.1342

     45  H    Isotropic =    25.4592   Anisotropy =    16.4596

     46  C    Isotropic =    56.1976   Anisotropy =   301.9606

     47  H    Isotropic =    20.0018   Anisotropy =    14.0539

     48  H    Isotropic =    20.6816   Anisotropy =    13.2890

     49  H    Isotropic =    17.9083   Anisotropy =    12.9122

     50  C    Isotropic =    53.0563   Anisotropy =   109.4016

     51  C    Isotropic =    72.8013   Anisotropy =   237.3696

     52  C    Isotropic =    45.8044   Anisotropy =   203.8909

     53  C    Isotropic =     7.1059   Anisotropy =   134.3621

     54  H    Isotropic =    21.5959   Anisotropy =    13.4041

     55  C    Isotropic =   -13.2381   Anisotropy =   101.8157

     56  H    Isotropic =    22.7481   Anisotropy =    13.7771

     57  C    Isotropic =    45.3617   Anisotropy =   353.4893

     58  H    Isotropic =    14.8898   Anisotropy =    16.2833

     59  H    Isotropic =    19.3021   Anisotropy =    13.2925

     60  H    Isotropic =    13.0164   Anisotropy =    20.2336

     61  C    Isotropic =    55.1324   Anisotropy =   150.7183

     62  C    Isotropic =    83.1590   Anisotropy =   251.3953

     63  C    Isotropic =    42.7279   Anisotropy =   204.0246

     64  C    Isotropic =    -3.7263   Anisotropy =    99.6108

     65  H    Isotropic =    22.3293   Anisotropy =    10.7401

     66  C    Isotropic =    -3.6071   Anisotropy =   134.4448

     67  H    Isotropic =    23.4083   Anisotropy =    11.4966

     68  C    Isotropic =    29.3531   Anisotropy =   332.1182

     69  H    Isotropic =    15.8865   Anisotropy =    15.0104

     70  H    Isotropic =    18.9235   Anisotropy =    13.2694

     71  H    Isotropic =    14.0476   Anisotropy =    18.9878

     72  Cl   Isotropic =   814.3355   Anisotropy =   196.5848

     73  C    Isotropic =   154.3254   Anisotropy =    25.7080

     74  H    Isotropic =    32.4389   Anisotropy =    11.0011

     75  H    Isotropic =    32.5427   Anisotropy =    11.7359

     76  Cl   Isotropic =   890.9083   Anisotropy =   214.7931

     77  C    Isotropic =   151.6478   Anisotropy =    35.7528

     78  H    Isotropic =    32.3144   Anisotropy =     9.5687

     79  H    Isotropic =    30.1580   Anisotropy =     8.5867

     80  C    Isotropic =   150.9855   Anisotropy =    27.0005

     81  H    Isotropic =    29.7992   Anisotropy =    14.3941

     82  H    Isotropic =    31.4280   Anisotropy =     8.4234

     83  C    Isotropic =   165.9741   Anisotropy =    36.7965

     84  H    Isotropic =    31.1101   Anisotropy =     9.7631

     85  H    Isotropic =    30.7463   Anisotropy =    11.9645

     86  H    Isotropic =    31.1747   Anisotropy =    11.2582

 The electronic state is 1-A.
 Alpha  occ. eigenvalues -- ********************-427.54719-414.87774-414.87703
 Alpha  occ. eigenvalues -- -414.87461-149.63235-141.91044-141.91027-141.90913
 Alpha  occ. eigenvalues -- -100.55293-100.55144-100.51715 -99.92789 -92.08642
 Alpha  occ. eigenvalues --  -92.08537 -92.08163 -79.04517 -79.04403 -79.04204
 Alpha  occ. eigenvalues --  -79.04137 -79.04088 -76.32145 -76.31879 -28.79813
 Alpha  occ. eigenvalues --  -25.14515 -25.14456 -25.14106 -20.84279 -17.69380
 Alpha  occ. eigenvalues --  -17.69374 -17.69146 -17.69104 -17.69036 -17.41120
 Alpha  occ. eigenvalues --  -17.40922 -17.40111 -11.59503 -11.59097 -11.58680
 Alpha  occ. eigenvalues --  -11.58540 -11.58435  -9.93816  -9.93756  -9.93733
 Alpha  occ. eigenvalues --   -9.93534  -9.93327  -9.92711  -9.91990  -9.91913
 Alpha  occ. eigenvalues --   -9.91787  -9.91597  -9.91326  -9.91273  -9.91257
 Alpha  occ. eigenvalues --   -9.91164  -9.91063  -9.90758  -9.90745  -9.90719
 Alpha  occ. eigenvalues --   -9.90710  -9.90706  -9.90622  -9.90612  -9.90604
 Alpha  occ. eigenvalues --   -9.90603  -9.90423  -9.90392  -9.90208  -9.90202
 Alpha  occ. eigenvalues --   -9.90137  -9.90093  -9.90070  -9.90059  -9.90034
 Alpha  occ. eigenvalues --   -9.89997  -9.89803  -9.89623  -9.89446  -9.88900
 Alpha  occ. eigenvalues --   -9.87913  -9.87129  -9.13073  -9.12946  -9.09561
 Alpha  occ. eigenvalues --   -6.96846  -6.96715  -6.96302  -6.96251  -6.96172
 Alpha  occ. eigenvalues --   -6.96124  -6.93293  -6.92807  -6.92741  -6.35186
 Alpha  occ. eigenvalues --   -6.35019  -4.57725  -4.57703  -4.57568  -4.57528
 Alpha  occ. eigenvalues --   -4.57433  -4.57238  -4.48799  -3.22392  -3.22312
 Alpha  occ. eigenvalues --   -3.21653  -3.14363  -3.14340  -3.13881  -3.13590
 Alpha  occ. eigenvalues --   -3.13463  -3.13338  -3.13303  -2.87183  -1.82371
 Alpha  occ. eigenvalues --   -1.81786  -1.79498  -1.01621  -1.01405  -1.00960
 Alpha  occ. eigenvalues --   -1.00853  -1.00842  -0.80319  -0.80119  -0.79608
 Alpha  occ. eigenvalues --   -0.79196  -0.78949  -0.78888  -0.72187  -0.71972
 Alpha  occ. eigenvalues --   -0.71940  -0.70865  -0.70188  -0.69542  -0.69464
 Alpha  occ. eigenvalues --   -0.69154  -0.69110  -0.68900  -0.68810  -0.68633
 Alpha  occ. eigenvalues --   -0.68460  -0.68397  -0.68295  -0.67011  -0.65035
 Alpha  occ. eigenvalues --   -0.61394  -0.61022  -0.56604  -0.56438  -0.56300
 Alpha  occ. eigenvalues --   -0.56286  -0.55782  -0.55584  -0.55420  -0.55163
 Alpha  occ. eigenvalues --   -0.55080  -0.54841  -0.54774  -0.52467  -0.51988
 Alpha  occ. eigenvalues --   -0.51194  -0.48106  -0.47947  -0.47739  -0.47551
 Alpha  occ. eigenvalues --   -0.46263  -0.45701  -0.42769  -0.42391  -0.42294
 Alpha  occ. eigenvalues --   -0.42103  -0.41991  -0.41753  -0.41685  -0.41563
 Alpha  occ. eigenvalues --   -0.41055  -0.41014  -0.40816  -0.40694  -0.40256
 Alpha  occ. eigenvalues --   -0.40164  -0.39320  -0.38858  -0.38657  -0.38545
 Alpha  occ. eigenvalues --   -0.38450  -0.38315  -0.38252  -0.38081  -0.37964
 Alpha  occ. eigenvalues --   -0.37595  -0.37512  -0.37426  -0.37068  -0.35446
 Alpha  occ. eigenvalues --   -0.35102  -0.34766  -0.34502  -0.34277  -0.34184
 Alpha  occ. eigenvalues --   -0.33820  -0.33441  -0.32846  -0.32486  -0.32339
 Alpha  occ. eigenvalues --   -0.31956  -0.31662  -0.31634  -0.31417  -0.31368
 Alpha  occ. eigenvalues --   -0.31217  -0.31019  -0.30945  -0.30538  -0.30197
 Alpha  occ. eigenvalues --   -0.29955  -0.29917  -0.29059  -0.28885  -0.28524
 Alpha  occ. eigenvalues --   -0.28140  -0.27934  -0.27542  -0.27141  -0.26918
 Alpha  occ. eigenvalues --   -0.26487  -0.25998  -0.25514  -0.25266  -0.25097
 Alpha  occ. eigenvalues --   -0.24874  -0.24699  -0.24595  -0.24527  -0.24273
 Alpha  occ. eigenvalues --   -0.24204  -0.23910  -0.23842  -0.23213  -0.22760
 Alpha  occ. eigenvalues --   -0.22408  -0.21960  -0.21609  -0.21051
 Alpha virt. eigenvalues --   -0.10832  -0.08258  -0.07551  -0.06961  -0.06586
 Alpha virt. eigenvalues --   -0.06525  -0.06464  -0.06203  -0.06047  -0.05728
 Alpha virt. eigenvalues --   -0.05675  -0.05087  -0.04683  -0.04172  -0.03258

 Mulliken charges:
               1
     1  Pt   0.052642
     2  P    1.023181
     3  C   -0.913303
     4  C    0.272153
     5  C    0.461160
     6  C   -0.144570
     7  H    0.092177
     8  C   -0.070231
     9  H    0.099974
    10  C   -0.509539
    11  H    0.141301
    12  H    0.136222
    13  H    0.151301
    14  C   -0.826027
    15  C    0.204159
    16  C    0.602771
    17  C   -0.288328
    18  H    0.101938
    19  C   -0.011679
    20  H    0.065011
    21  C   -0.558727
    22  H    0.144999
    23  H    0.146780
    24  H    0.156597
    25  C   -0.917347
    26  C    0.363909
    27  C    0.387938
    28  C    0.054085
    29  H    0.101526
    30  C   -0.294436
    31  H    0.089698
    32  C   -0.585680
    33  H    0.144681
    34  H    0.142469
    35  H    0.154263
    36  Sn   0.131536
    37  Cl  -0.470443
    38  P    1.055632
    39  C   -0.747955
    40  C    0.331877
    41  C    0.265575
    42  C   -0.066324
    43  H    0.100697
    44  C   -0.137249
    45  H    0.102737
    46  C   -0.539895
    47  H    0.147695
    48  H    0.146577
    49  H    0.149130
    50  C   -0.643401
    51  C    0.157309
    52  C    0.353310
    53  C   -0.099171
    54  H    0.087993
    55  C    0.009869
    56  H    0.067522
    57  C   -0.585542
    58  H    0.146900
    59  H    0.138969
    60  H    0.149664
    61  C   -0.610010
    62  C    0.075248
    63  C    0.398821
    64  C   -0.124578
    65  H    0.063485
    66  C    0.056150
    67  H    0.059857
    68  C   -0.526155
    69  H    0.138667
    70  H    0.137250
    71  H    0.146229
    72  Cl  -0.201759
    73  C   -0.094432
    74  H    0.041938
    75  H    0.064655
    76  Cl  -0.188238
    77  C   -0.180209
    78  H    0.111167
    79  H    0.094808
    80  C   -0.123004
    81  H    0.075267
    82  H    0.089522
    83  C   -0.353798
    84  H    0.137765
    85  H    0.143992
    86  H    0.143282
 Sum of Mulliken charges =   0.00000

 Dipole moment (field-independent basis, Debye):
    X=              4.7127    Y=             -2.4779    Z=             -0.5766  Tot=              5.3556
 Quadrupole moment (field-independent basis, Debye-Ang):
   XX=           -289.0937   YY=           -370.4267   ZZ=           -307.6055
   XY=              2.5267   XZ=              0.9106   YZ=              9.7078

 Normal termination of Gaussian 09 at Thu Nov 28 20:35:24 2019.
