 Gaussian 09, Revision D.01,
 Gaussian 09:  EM64L-G09RevD.01 24-Apr-2013

 ----------------------------------------------------------------------
 #PBEPBE/gen scf=(maxcycle=500,conver=3) NMR=GIAO Scrf=(solvent=Dichlor
 omethane)
 ----------------------------------------------------------------------

 ------------
 estrutura 99
 ------------
 Symbolic Z-matrix:
 Charge =  0 Multiplicity = 1

                         Standard orientation:
 ---------------------------------------------------------------------
 Center     Atomic      Atomic             Coordinates (Angstroms)
 Number     Number       Type             X           Y           Z
 ---------------------------------------------------------------------
      1         78           0       -0.136232   -0.412579   -0.159174
      2         15           0       -2.665550   -0.894313   -0.083528
      3         15           0       -0.248261    1.885159   -0.021096
      4          6           0       -3.076847   -1.801964    1.473801
      5          6           0       -4.325096   -2.430560    1.652950
      6          6           0       -2.156375   -1.810954    2.536755
      7          6           0       -4.627218   -3.081351    2.850751
      8          1           0       -5.076620   -2.408621    0.859327
      9          6           0       -2.469280   -2.446901    3.743602
     10          1           0       -1.193176   -1.309585    2.424211
     11          6           0       -3.699117   -3.093149    3.899769
     12          1           0       -5.595916   -3.574781    2.969217
     13          1           0       -1.746400   -2.434289    4.563231
     14          1           0       -3.940087   -3.598682    4.838274
     15          6           0       -3.092369   -2.052933   -1.473169
     16          6           0       -2.989638   -1.594844   -2.800570
     17          6           0       -3.431202   -3.400984   -1.263080
     18          6           0       -3.278957   -2.436233   -3.878609
     19          1           0       -2.661400   -0.577176   -3.012300
     20          6           0       -3.714952   -4.244477   -2.342521
     21          1           0       -3.451490   -3.815589   -0.255818
     22          6           0       -3.653360   -3.764278   -3.653478
     23          1           0       -3.200826   -2.050127   -4.898472
     24          1           0       -3.977071   -5.288488   -2.151433
     25          1           0       -3.878873   -4.424356   -4.495176
     26          6           0       -4.043565    0.368196   -0.120065
     27          6           0       -4.628423    0.792874    1.087578
     28          6           0       -4.517024    0.933302   -1.318351
     29          6           0       -5.676051    1.718781    1.091860
     30          1           0       -4.277735    0.394436    2.039726
     31          6           0       -5.559667    1.864048   -1.311818
     32          1           0       -4.091795    0.647812   -2.277944
     33          6           0       -6.150747    2.254606   -0.107326
     34          1           0       -6.123099    2.016629    2.043441
     35          1           0       -5.914248    2.277577   -2.259346
     36          1           0       -6.976855    2.971304   -0.104863
     37          6           0        1.233186    3.011743    0.050173
     38          6           0        1.705891    3.557808    1.253684
     39          6           0        1.852339    3.393482   -1.154116
     40          6           0        2.762493    4.476066    1.251531
     41          1           0        1.247260    3.287901    2.203780
     42          6           0        2.907592    4.310836   -1.153423
     43          1           0        1.497507    2.996838   -2.106979
     44          6           0        3.362888    4.858188    0.050523
     45          1           0        3.109573    4.895250    2.199128
     46          1           0        3.368601    4.601697   -2.099895
     47          1           0        4.181728    5.583659    0.050540
     48          6           0       -1.155059    2.324658    1.527812
     49          6           0       -2.238508    3.212317    1.600005
     50          6           0       -0.684086    1.729913    2.715392
     51          6           0       -2.820299    3.518637    2.835202
     52          1           0       -2.653292    3.661283    0.698244
     53          6           0       -1.263995    2.041709    3.946449
     54          1           0        0.149732    1.023995    2.677683
     55          6           0       -2.333137    2.942582    4.010743
     56          1           0       -3.666551    4.208391    2.872115
     57          1           0       -0.879944    1.576928    4.857658
     58          1           0       -2.788635    3.186358    4.973266
     59          6           0       -1.092531    2.625035   -1.488542
     60          6           0       -1.445561    3.987155   -1.541323
     61          6           0       -1.245063    1.842551   -2.644054
     62          6           0       -1.989365    4.532325   -2.706671
     63          1           0       -1.275426    4.638961   -0.682772
     64          6           0       -1.771579    2.395026   -3.817484
     65          1           0       -0.919246    0.799564   -2.625283
     66          6           0       -2.157616    3.737356   -3.846513
     67          1           0       -2.268494    5.588842   -2.729161
     68          1           0       -1.872702    1.773786   -4.711185
     69          1           0       -2.573788    4.170160   -4.760058
     70         50           0        2.538459   -0.656106   -0.173987
     71         35           0        0.011308   -2.976606   -0.300505
     72         35           0        3.507965    0.458420    2.024517
     73          6           0        3.368802   -2.675941    0.154552
     74          1           0        2.849458   -3.057772    1.048175
     75          1           0        2.987539   -3.257700   -0.697647
     76          6           0        4.884792   -2.806223    0.295623
     77          1           0        5.382150   -2.461053   -0.628601
     78          1           0        5.245847   -2.143251    1.101140
     79          6           0        5.360839   -4.240951    0.600586
     80          1           0        6.455746   -4.219195    0.749468
     81          1           0        4.930980   -4.565430    1.565854
     82          6           0        5.023298   -5.274767   -0.476467
     83          1           0        3.934931   -5.422864   -0.577432
     84          1           0        5.407877   -4.963583   -1.464066
     85          1           0        5.467430   -6.257512   -0.240355
     86          6           0        3.578491    0.311295   -1.882002
     87          1           0        3.823178   -0.533409   -2.551159
     88          1           0        2.787341    0.890067   -2.381526
     89          6           0        4.810479    1.188304   -1.633421
     90          1           0        5.019338    1.761332   -2.559381
     91          1           0        4.584700    1.947243   -0.864094
     92          6           0        6.086537    0.437686   -1.238051
     93          1           0        6.302621   -0.335875   -1.998022
     94          1           0        5.916338   -0.102480   -0.291598
     95          6           0        7.302923    1.352872   -1.083852
     96          1           0        7.142023    2.101385   -0.289458
     97          1           0        8.211197    0.781528   -0.823913
     98          1           0        7.513125    1.902121   -2.019241
 ---------------------------------------------------------------------

 SCF Done:  E(RPBE-PBE) =  -30613.7842288     A.U. after    9 cycles

      1  Pt   Isotropic =  3248.0047   Anisotropy =  1942.5929

      2  P    Isotropic =   288.9534   Anisotropy =    55.3622

      3  P    Isotropic =   239.2566   Anisotropy =   138.7523

      4  C    Isotropic =    35.0512   Anisotropy =   115.0028

      5  C    Isotropic =    70.6904   Anisotropy =   240.9437

      6  C    Isotropic =    20.7561   Anisotropy =   196.5318

      7  C    Isotropic =    18.5179   Anisotropy =   162.8320

      8  H    Isotropic =    22.3172   Anisotropy =    15.1916

      9  C    Isotropic =     9.4240   Anisotropy =   138.3323

     10  H    Isotropic =    26.0157   Anisotropy =    11.7017

     11  C    Isotropic =    61.9647   Anisotropy =   357.2018

     12  H    Isotropic =    16.2793   Anisotropy =    15.2209

     13  H    Isotropic =    21.9000   Anisotropy =    10.7268

     14  H    Isotropic =    15.0077   Anisotropy =    17.5528

     15  C    Isotropic =    51.7443   Anisotropy =    78.8639

     16  C    Isotropic =    50.2600   Anisotropy =   174.7621

     17  C    Isotropic =    66.5007   Anisotropy =   203.5851

     18  C    Isotropic =     7.1728   Anisotropy =   162.6261

     19  H    Isotropic =    24.8942   Anisotropy =     9.1193

     20  C    Isotropic =    30.8806   Anisotropy =   202.8484

     21  H    Isotropic =    23.4564   Anisotropy =    14.2099

     22  C    Isotropic =    74.1048   Anisotropy =   400.4603

     23  H    Isotropic =    17.9721   Anisotropy =    15.7274

     24  H    Isotropic =    15.6835   Anisotropy =    18.3819

     25  H    Isotropic =    13.0000   Anisotropy =    20.7861

     26  C    Isotropic =    75.2384   Anisotropy =   128.3665

     27  C    Isotropic =    70.0549   Anisotropy =   183.0142

     28  C    Isotropic =    86.5621   Anisotropy =   215.7655

     29  C    Isotropic =    59.6042   Anisotropy =   148.6820

     30  H    Isotropic =    25.8586   Anisotropy =    14.2572

     31  C    Isotropic =    77.5605   Anisotropy =   183.0784

     32  H    Isotropic =    24.6765   Anisotropy =     9.0524

     33  C    Isotropic =    62.2580   Anisotropy =   135.4372

     34  H    Isotropic =    23.8677   Anisotropy =     9.0206

     35  H    Isotropic =    25.1772   Anisotropy =     8.3066

     36  H    Isotropic =    24.6585   Anisotropy =     3.8918

     37  C    Isotropic =    38.9731   Anisotropy =   293.7913

     38  C    Isotropic =    51.4934   Anisotropy =   186.7088

     39  C    Isotropic =    13.1559   Anisotropy =   121.9637

     40  C    Isotropic =   122.8152   Anisotropy =   275.6952

     41  H    Isotropic =    25.2673   Anisotropy =    11.6820

     42  C    Isotropic =    97.4932   Anisotropy =   260.4658

     43  H    Isotropic =    24.7891   Anisotropy =    11.3506

     44  C    Isotropic =    57.7841   Anisotropy =    85.0267

     45  H    Isotropic =    30.7550   Anisotropy =    13.0721

     46  H    Isotropic =    28.4655   Anisotropy =     7.8962

     47  H    Isotropic =    33.9528   Anisotropy =    24.7789

     48  C    Isotropic =    28.2372   Anisotropy =   241.0951

     49  C    Isotropic =    28.5978   Anisotropy =   160.2075

     50  C    Isotropic =    28.9892   Anisotropy =   177.1983

     51  C    Isotropic =    59.3776   Anisotropy =   214.9146

     52  H    Isotropic =    25.1218   Anisotropy =    10.8228

     53  C    Isotropic =    84.4928   Anisotropy =   247.9839

     54  H    Isotropic =    23.4319   Anisotropy =    13.0267

     55  C    Isotropic =    73.7204   Anisotropy =   229.6549

     56  H    Isotropic =    24.6069   Anisotropy =     6.0518

     57  H    Isotropic =    25.5630   Anisotropy =     7.1159

     58  H    Isotropic =    25.8778   Anisotropy =     1.7438

     59  C    Isotropic =   -15.1217   Anisotropy =   200.9226

     60  C    Isotropic =    -6.1064   Anisotropy =   136.8283

     61  C    Isotropic =   -10.4583   Anisotropy =   121.1588

     62  C    Isotropic =    67.0348   Anisotropy =   271.8539

     63  H    Isotropic =    24.5937   Anisotropy =    10.4927

     64  C    Isotropic =    66.6141   Anisotropy =   240.7942

     65  H    Isotropic =    25.8875   Anisotropy =    14.8324

     66  C    Isotropic =   127.0848   Anisotropy =   413.7909

     67  H    Isotropic =    25.4699   Anisotropy =     3.9164

     68  H    Isotropic =    26.7479   Anisotropy =     4.7163

     69  H    Isotropic =    25.7484   Anisotropy =     1.6603

     70  Sn   Isotropic =  1864.7231   Anisotropy =   191.1487

     71  Br   Isotropic =  2706.4206   Anisotropy =  1178.3112

     72  Br   Isotropic =  2672.7538   Anisotropy =   270.0027

     73  C    Isotropic =   147.0561   Anisotropy =    34.5091

     74  H    Isotropic =    30.6520   Anisotropy =     8.5888

     75  H    Isotropic =    29.0920   Anisotropy =    13.2081

     76  C    Isotropic =   149.4528   Anisotropy =    28.4182

     77  H    Isotropic =    30.0869   Anisotropy =     7.1171

     78  H    Isotropic =    29.5995   Anisotropy =     9.2813

     79  C    Isotropic =   149.8093   Anisotropy =    25.6950

     80  H    Isotropic =    27.8857   Anisotropy =    13.9620

     81  H    Isotropic =    30.6479   Anisotropy =    10.1074

     82  C    Isotropic =   160.1107   Anisotropy =    29.9964

     83  H    Isotropic =    31.8978   Anisotropy =     3.9987

     84  H    Isotropic =    31.3216   Anisotropy =    10.2076

     85  H    Isotropic =    29.0231   Anisotropy =    15.2308

     86  C    Isotropic =   149.5368   Anisotropy =    35.5439

     87  H    Isotropic =    29.3888   Anisotropy =    11.4877

     88  H    Isotropic =    30.8226   Anisotropy =     5.0376

     89  C    Isotropic =   150.9213   Anisotropy =    18.9787

     90  H    Isotropic =    29.4789   Anisotropy =    10.1910

     91  H    Isotropic =    30.9271   Anisotropy =     7.3428

     92  C    Isotropic =   149.1522   Anisotropy =    22.7266

     93  H    Isotropic =    30.2906   Anisotropy =     6.8542

     94  H    Isotropic =    29.9706   Anisotropy =     9.0677

     95  C    Isotropic =   166.0224   Anisotropy =    33.1229

     96  H    Isotropic =    30.8741   Anisotropy =     6.6239

     97  H    Isotropic =    30.4081   Anisotropy =    11.7571

     98  H    Isotropic =    30.8799   Anisotropy =     9.7967

 The electronic state is 1-A.
 Alpha  occ. eigenvalues -- ********************-478.59079-478.56110-427.51909
 Alpha  occ. eigenvalues -- -414.84930-414.84909-414.84660-149.61265-141.89124
 Alpha  occ. eigenvalues -- -141.89012-141.88991 -99.90044 -92.05847 -92.05809
 Alpha  occ. eigenvalues --  -92.05445 -79.01727 -79.01629 -79.01430 -79.01407
 Alpha  occ. eigenvalues --  -79.01348 -76.31373 -76.30433 -61.50830 -61.48017
 Alpha  occ. eigenvalues --  -55.69260 -55.69073 -55.69060 -55.66413 -55.66242
 Alpha  occ. eigenvalues --  -55.66212 -28.77605 -25.12405 -25.12073 -25.12009
 Alpha  occ. eigenvalues --  -20.81582 -17.67205 -17.67147 -17.67105 -17.66883
 Alpha  occ. eigenvalues --  -17.66877 -17.38325 -17.38261 -17.37480 -11.56732
 Alpha  occ. eigenvalues --  -11.56377 -11.55964 -11.55914 -11.55789  -9.92511
 Alpha  occ. eigenvalues --   -9.92360  -9.92209  -9.92194  -9.92129  -9.91421
 Alpha  occ. eigenvalues --   -9.91330  -9.91161  -9.91050  -9.90973  -9.90916
 Alpha  occ. eigenvalues --   -9.90860  -9.90859  -9.90804  -9.90737  -9.90665
 Alpha  occ. eigenvalues --   -9.90657  -9.90611  -9.90546  -9.90531  -9.90482
 Alpha  occ. eigenvalues --   -9.90464  -9.90462  -9.90442  -9.90338  -9.90337
 Alpha  occ. eigenvalues --   -9.90280  -9.90261  -9.90101  -9.90098  -9.90047
 Alpha  occ. eigenvalues --   -9.90046  -9.89934  -9.89735  -9.89665  -9.89520
 Alpha  occ. eigenvalues --   -9.88132  -9.87786  -9.87779  -9.87472  -9.87471
 Alpha  occ. eigenvalues --   -9.86955  -9.86674  -9.86314  -8.33471  -8.31044
 Alpha  occ. eigenvalues --   -6.34304  -6.33385  -6.24149  -6.23604  -6.23567
 Alpha  occ. eigenvalues --   -6.21711  -6.21202  -6.21125  -4.56857  -4.56830
 Alpha  occ. eigenvalues --   -4.56556  -4.55964  -4.55935  -4.55566  -4.46262
 Alpha  occ. eigenvalues --   -3.20039  -3.19390  -3.19256  -3.11607  -3.11597
 Alpha  occ. eigenvalues --   -3.11167  -3.10922  -3.10777  -3.10731  -3.10677
 Alpha  occ. eigenvalues --   -2.84656  -2.45133  -2.44997  -2.44971  -2.44567
 Alpha  occ. eigenvalues --   -2.44566  -2.42699  -2.42580  -2.42527  -2.42151
 Alpha  occ. eigenvalues --   -2.42150  -1.79777  -1.79277  -1.77156  -0.98943
 Alpha  occ. eigenvalues --   -0.98677  -0.98579  -0.98197  -0.98107  -0.79951
 Alpha  occ. eigenvalues --   -0.79450  -0.79207  -0.78803  -0.78601  -0.78482
 Alpha  occ. eigenvalues --   -0.71801  -0.71349  -0.71244  -0.70897  -0.69188
 Alpha  occ. eigenvalues --   -0.69172  -0.68768  -0.68721  -0.68481  -0.68364
 Alpha  occ. eigenvalues --   -0.68295  -0.68290  -0.68045  -0.67882  -0.66140
 Alpha  occ. eigenvalues --   -0.64397  -0.64245  -0.63376  -0.60850  -0.60229
 Alpha  occ. eigenvalues --   -0.56346  -0.56179  -0.56056  -0.55896  -0.55522
 Alpha  occ. eigenvalues --   -0.55387  -0.55292  -0.54918  -0.54822  -0.54777
 Alpha  occ. eigenvalues --   -0.54557  -0.54447  -0.52007  -0.51524  -0.50807
 Alpha  occ. eigenvalues --   -0.49628  -0.47854  -0.47606  -0.47280  -0.47114
 Alpha  occ. eigenvalues --   -0.46008  -0.45544  -0.42341  -0.42099  -0.41809
 Alpha  occ. eigenvalues --   -0.41557  -0.41459  -0.41320  -0.41248  -0.40958
 Alpha  occ. eigenvalues --   -0.40863  -0.40771  -0.40571  -0.40463  -0.40201
 Alpha  occ. eigenvalues --   -0.40001  -0.39425  -0.38896  -0.38527  -0.38369
 Alpha  occ. eigenvalues --   -0.38244  -0.38157  -0.38004  -0.37907  -0.37594
 Alpha  occ. eigenvalues --   -0.37503  -0.37109  -0.37085  -0.36807  -0.36510
 Alpha  occ. eigenvalues --   -0.35873  -0.35842  -0.35235  -0.34604  -0.34150
 Alpha  occ. eigenvalues --   -0.34054  -0.33859  -0.33790  -0.33395  -0.33245
 Alpha  occ. eigenvalues --   -0.33233  -0.32418  -0.31953  -0.31523  -0.31455
 Alpha  occ. eigenvalues --   -0.31265  -0.31168  -0.31082  -0.30939  -0.30745
 Alpha  occ. eigenvalues --   -0.30450  -0.30360  -0.29914  -0.29827  -0.29500
 Alpha  occ. eigenvalues --   -0.29350  -0.29134  -0.28290  -0.28203  -0.27965
 Alpha  occ. eigenvalues --   -0.27334  -0.27116  -0.26556  -0.26309  -0.25868
 Alpha  occ. eigenvalues --   -0.25247  -0.25094  -0.24816  -0.24746  -0.24505
 Alpha  occ. eigenvalues --   -0.24368  -0.24236  -0.24150  -0.23894  -0.23776
 Alpha  occ. eigenvalues --   -0.23686  -0.23392  -0.23187  -0.23056  -0.22859
 Alpha  occ. eigenvalues --   -0.21062  -0.20872  -0.20685  -0.20615  -0.18487
 Alpha virt. eigenvalues --   -0.09297  -0.07572  -0.06964  -0.06634  -0.06430
 Alpha virt. eigenvalues --   -0.06054  -0.05781  -0.05670  -0.05399  -0.05290
 Alpha virt. eigenvalues --   -0.05033  -0.04802  -0.04403  -0.04095  -0.02328

 Mulliken charges:
               1
     1  Pt   0.443805
     2  P    1.151998
     3  P    0.895107
     4  C   -0.775946
     5  C    0.267191
     6  C    0.334663
     7  C    0.064423
     8  H    0.097359
     9  C   -0.201823
    10  H    0.077091
    11  C   -0.605764
    12  H    0.142014
    13  H    0.140532
    14  H    0.152839
    15  C   -0.826344
    16  C    0.646456
    17  C    0.208111
    18  C   -0.136517
    19  H    0.049155
    20  C   -0.237304
    21  H    0.099823
    22  C   -0.573014
    23  H    0.140824
    24  H    0.142580
    25  H    0.152394
    26  C   -0.913758
    27  C    0.393512
    28  C    0.177404
    29  C   -0.068013
    30  H    0.071886
    31  C   -0.061488
    32  H    0.071733
    33  C   -0.510311
    34  H    0.121714
    35  H    0.133715
    36  H    0.146213
    37  C   -0.792474
    38  C    0.123734
    39  C    0.462270
    40  C   -0.214397
    41  H    0.076408
    42  C    0.072225
    43  H    0.079270
    44  C   -0.502282
    45  H    0.137482
    46  H    0.118063
    47  H    0.145456
    48  C   -0.750815
    49  C    0.276564
    50  C    0.447045
    51  C   -0.100558
    52  H    0.050686
    53  C    0.008373
    54  H    0.055616
    55  C   -0.524243
    56  H    0.120529
    57  H    0.134615
    58  H    0.147105
    59  C   -0.860520
    60  C    0.220448
    61  C    0.591763
    62  C    0.043563
    63  H    0.082742
    64  C   -0.201606
    65  H    0.043127
    66  C   -0.581659
    67  H    0.140061
    68  H    0.131770
    69  H    0.152114
    70  Sn  -0.299429
    71  Br  -0.392462
    72  Br  -0.358945
    73  C   -0.216888
    74  H    0.095661
    75  H    0.105510
    76  C   -0.092195
    77  H    0.067768
    78  H    0.092001
    79  C   -0.250047
    80  H    0.134707
    81  H    0.120022
    82  C   -0.336205
    83  H    0.121243
    84  H    0.129273
    85  H    0.148622
    86  C   -0.175141
    87  H    0.094724
    88  H    0.073946
    89  C   -0.039340
    90  H    0.087428
    91  H    0.033743
    92  C   -0.134115
    93  H    0.096199
    94  H    0.073903
    95  C   -0.340402
    96  H    0.127931
    97  H    0.145613
    98  H    0.142134
 Sum of Mulliken charges =   0.00000

 Dipole moment (field-independent basis, Debye):
    X=             -9.3434    Y=              7.2791    Z=             -2.9133  Tot=             12.1972
 Quadrupole moment (field-independent basis, Debye-Ang):
   XX=           -372.8567   YY=           -367.4599   ZZ=           -345.6497
   XY=             -1.8154   XZ=            -15.0745   YZ=             -8.2489

 1\1\GINC-NEQC27\SP\RPBEPBE\Gen\C44H48Br2P2Pt1Sn1\GUEST\13-Dec-2019\0\\
 #PBEPBE/gen scf=(maxcycle=500,conver=3) NMR=GIAO Scrf=(solvent=Dichlor
 omethane)\\estrutura 99\\0,1\Pt,0,-0.136232,0.412579,0.159174\P,0,-2.6
 6555,0.894313,0.083528\P,0,-0.248261,-1.885159,0.021096\C,0,-3.076847,
 1.801964,-1.473801\C,0,-4.325096,2.43056,-1.65295\C,0,-2.156375,1.8109
 54,-2.536755\C,0,-4.627218,3.081351,-2.850751\H,0,-5.07662,2.408621,-0
 .859327\C,0,-2.46928,2.446901,-3.743602\H,0,-1.193176,1.309585,-2.4242
 11\C,0,-3.699117,3.093149,-3.899769\H,0,-5.595916,3.574781,-2.969217\H

 Normal termination of Gaussian 09 at Fri Dec 13 03:51:25 2019.
