 Gaussian 09, Revision D.01,
 Gaussian 09:  EM64L-G09RevD.01 24-Apr-2013

 ----------------------------------------------------------------------
 #PBEPBE/gen scf=(maxcycle=1000,conver=4) NMR=GIAO scrf=(solvent=dichlo
 romethane)
 ----------------------------------------------------------------------

 ------------
 estrutura 25
 ------------
 Symbolic Z-matrix:
 Charge = -1 Multiplicity = 1

                         Standard orientation:
 ---------------------------------------------------------------------
 Center     Atomic      Atomic             Coordinates (Angstroms)
 Number     Number       Type             X           Y           Z
 ---------------------------------------------------------------------
      1         78           0        0.548919   -0.912593   -0.054271
      2         17           0        2.438361   -2.348471   -0.614517
      3         17           0       -0.959002   -2.837341    0.126815
      4         50           0       -1.715983    0.319856    0.085680
      5         17           0       -2.805947    0.635826    2.229897
      6         17           0       -3.589562   -0.521416   -1.194604
      7         17           0       -1.915400    2.606889   -0.779426
      8         15           0        2.030357    0.837905   -0.038515
      9          6           0        3.574395    0.422839    0.892135
     10          1           0        4.234895    1.303103    0.828116
     11          1           0        4.046184   -0.391338    0.324767
     12          6           0        3.354401    0.000581    2.345481
     13          1           0        2.717673   -0.895704    2.401945
     14          1           0        4.320041   -0.235827    2.818850
     15          1           0        2.879852    0.793213    2.946176
     16          6           0        1.422729    2.384750    0.771766
     17          1           0        0.468098    2.654018    0.296962
     18          1           0        1.172776    2.068116    1.798807
     19          6           0        2.372939    3.590087    0.790607
     20          1           0        2.449991    4.061786   -0.199996
     21          1           0        1.985782    4.343243    1.493837
     22          1           0        3.393245    3.334338    1.114838
     23          6           0        2.640506    1.254579   -1.736085
     24          1           0        3.619684    1.753495   -1.630415
     25          1           0        2.823443    0.272676   -2.206510
     26          6           0        1.677710    2.098075   -2.581386
     27          1           0        0.689420    1.617559   -2.671249
     28          1           0        1.527635    3.097382   -2.144814
     29          1           0        2.079663    2.236112   -3.598353
 ---------------------------------------------------------------------

 SCF Done:  E(RPBE-PBE) =  -25969.9673088     A.U. after   10 cycles

      1  Pt   Isotropic =  2839.6175   Anisotropy =  2679.9851

      2  Cl   Isotropic =   868.9758   Anisotropy =   247.8951

      3  Cl   Isotropic =  1004.3215   Anisotropy =   534.4478

      4  Sn   Isotropic =  2159.9178   Anisotropy =   875.1638

      5  Cl   Isotropic =   766.3833   Anisotropy =   352.9704

      6  Cl   Isotropic =   755.6706   Anisotropy =   328.5365

      7  Cl   Isotropic =   739.3304   Anisotropy =   320.2667

      8  P    Isotropic =   226.4120   Anisotropy =   116.2569

      9  C    Isotropic =   156.9468   Anisotropy =    25.6495

     10  H    Isotropic =    29.5909   Anisotropy =     9.1906

     11  H    Isotropic =    28.5247   Anisotropy =     4.9065

     12  C    Isotropic =   173.6463   Anisotropy =    18.8019

     13  H    Isotropic =    29.8764   Anisotropy =     5.9498

     14  H    Isotropic =    30.3593   Anisotropy =    13.4269

     15  H    Isotropic =    30.4050   Anisotropy =     8.0316

     16  C    Isotropic =   155.6352   Anisotropy =    49.9950

     17  H    Isotropic =    27.9664   Anisotropy =    13.9023

     18  H    Isotropic =    29.3222   Anisotropy =     3.8098

     19  C    Isotropic =   175.1345   Anisotropy =    22.8500

     20  H    Isotropic =    30.4157   Anisotropy =     9.3913

     21  H    Isotropic =    30.3032   Anisotropy =    12.6736

     22  H    Isotropic =    30.3402   Anisotropy =     9.1445

     23  C    Isotropic =   154.7657   Anisotropy =    29.0020

     24  H    Isotropic =    29.6127   Anisotropy =     9.3733

     25  H    Isotropic =    28.9979   Anisotropy =     4.9365

     26  C    Isotropic =   173.7821   Anisotropy =    13.4288

     27  H    Isotropic =    29.8783   Anisotropy =     6.2708

     28  H    Isotropic =    30.3485   Anisotropy =     7.0935

     29  H    Isotropic =    30.2422   Anisotropy =    12.9234

 The electronic state is 1-A.
 Alpha  occ. eigenvalues -- ********************-427.52186-414.85248-414.85167
 Alpha  occ. eigenvalues -- -414.84894-149.64746-141.92566-141.92555-141.92482
 Alpha  occ. eigenvalues -- -100.54868-100.54555-100.54505-100.51249-100.50810
 Alpha  occ. eigenvalues --  -99.90242 -92.06146 -92.05983 -92.05566 -79.02021
 Alpha  occ. eigenvalues --  -79.01877 -79.01652 -79.01566 -79.01510 -76.29993
 Alpha  occ. eigenvalues --  -28.81135 -25.15791 -25.15753 -25.15521 -20.81719
 Alpha  occ. eigenvalues --  -17.70672 -17.70670 -17.70514 -17.70488 -17.70449
 Alpha  occ. eigenvalues --  -17.38656 -17.38345 -17.37464 -11.57060 -11.56555
 Alpha  occ. eigenvalues --  -11.56097 -11.55930 -11.55810  -9.90207  -9.89982
 Alpha  occ. eigenvalues --   -9.89774  -9.88534  -9.88320  -9.88104  -9.12749
 Alpha  occ. eigenvalues --   -9.12437  -9.12394  -9.09077  -9.08667  -6.96535
 Alpha  occ. eigenvalues --   -6.96245  -6.96154  -6.95939  -6.95923  -6.95627
 Alpha  occ. eigenvalues --   -6.95595  -6.95588  -6.95582  -6.92810  -6.92398
 Alpha  occ. eigenvalues --   -6.92307  -6.92282  -6.91906  -6.91857  -6.32952
 Alpha  occ. eigenvalues --   -4.55462  -4.55434  -4.55295  -4.49858  -3.23323
 Alpha  occ. eigenvalues --   -3.23269  -3.22887  -3.11904  -3.11858  -3.11358
 Alpha  occ. eigenvalues --   -3.10996  -3.10857  -3.10722  -3.10680  -2.84729
 Alpha  occ. eigenvalues --   -1.80039  -1.79447  -1.76923  -1.02365  -1.02316
 Alpha  occ. eigenvalues --   -1.02003  -1.01921  -1.01878  -0.72969  -0.71460
 Alpha  occ. eigenvalues --   -0.69877  -0.69603  -0.68801  -0.68502  -0.66622
 Alpha  occ. eigenvalues --   -0.66063  -0.60597  -0.56724  -0.54797  -0.48284
 Alpha  occ. eigenvalues --   -0.42201  -0.41730  -0.41252  -0.39886  -0.37352
 Alpha  occ. eigenvalues --   -0.36944  -0.36344  -0.36220  -0.34108  -0.32880
 Alpha  occ. eigenvalues --   -0.32516  -0.32225  -0.31737  -0.31669  -0.31409
 Alpha  occ. eigenvalues --   -0.30664  -0.30292  -0.29171  -0.28478  -0.28060
 Alpha  occ. eigenvalues --   -0.27161  -0.26855  -0.26739  -0.26265  -0.26057
 Alpha  occ. eigenvalues --   -0.25450  -0.25226  -0.24713  -0.24543  -0.22810
 Alpha  occ. eigenvalues --   -0.21481  -0.20930  -0.20779  -0.20582  -0.19697
 Alpha virt. eigenvalues --   -0.10233  -0.04245  -0.02288  -0.01705  -0.01203
 Alpha virt. eigenvalues --    0.00171   0.00433   0.00696   0.01450   0.01824
 Alpha virt. eigenvalues --    0.02397   0.02896   0.03333   0.04195   0.04409

 Mulliken charges:
               1
     1  Pt   0.270944
     2  Cl  -0.532563
     3  Cl  -0.535897
     4  Sn   0.342152
     5  Cl  -0.241874
     6  Cl  -0.221590
     7  Cl  -0.264938
     8  P    0.085716
     9  C   -0.433295
    10  H    0.115684
    11  H    0.123272
    12  C   -0.153104
    13  H    0.093306
    14  H    0.139849
    15  H    0.107967
    16  C   -0.268182
    17  H    0.075942
    18  H    0.088619
    19  C   -0.214654
    20  H    0.119086
    21  H    0.140300
    22  H    0.115320
    23  C   -0.342039
    24  H    0.117670
    25  H    0.098948
    26  C   -0.172838
    27  H    0.093166
    28  H    0.110672
    29  H    0.142361
 Sum of Mulliken charges =  -1.00000

 Dipole moment (field-independent basis, Debye):
    X=             11.2632    Y=             10.9512    Z=              0.9631  Tot=             15.7390
 Quadrupole moment (field-independent basis, Debye-Ang):
   XX=           -207.3314   YY=           -212.8154   ZZ=           -181.9338
   XY=             20.9449   XZ=              4.7456   YZ=             -2.5886

 Normal termination of Gaussian 09 at Tue Feb  4 07:25:44 2020.
