 Gaussian 09, Revision D.01,
 Gaussian 09:  EM64L-G09RevD.01 24-Apr-2013

 ----------------------------------------------------------------------
 #PBEPBE/gen scf=(maxcycle=500,conver=3) NMR=GIAO Scrf=(solvent=Dichlor
 omethane)
 ----------------------------------------------------------------------

 -------------
 estrutura 102
 -------------
 Symbolic Z-matrix:
 Charge =  0 Multiplicity = 1

                         Standard orientation:
 ---------------------------------------------------------------------
 Center     Atomic      Atomic             Coordinates (Angstroms)
 Number     Number       Type             X           Y           Z
 ---------------------------------------------------------------------
      1         78           0       -0.097601   -0.320955   -0.150271
      2         15           0       -2.376613   -1.298392   -0.057015
      3         15           0       -0.630570    1.930111    0.043816
      4          6           0       -2.636496   -2.147185    1.558458
      5          6           0       -3.789183   -2.931049    1.769409
      6          6           0       -1.733486   -1.963206    2.615306
      7          6           0       -4.006711   -3.547807    3.003180
      8          1           0       -4.527900   -3.055413    0.972633
      9          6           0       -1.965322   -2.561761    3.859001
     10          1           0       -0.849941   -1.336795    2.472536
     11          6           0       -3.093658   -3.365074    4.050406
     12          1           0       -4.894856   -4.169065    3.148208
     13          1           0       -1.261153   -2.398306    4.678082
     14          1           0       -3.267970   -3.842449    5.018244
     15          6           0       -2.516655   -2.588476   -1.374525
     16          6           0       -2.403833   -2.188545   -2.718916
     17          6           0       -2.661384   -3.956597   -1.090177
     18          6           0       -2.482275   -3.123476   -3.753467
     19          1           0       -2.234937   -1.140947   -2.971853
     20          6           0       -2.732441   -4.891967   -2.127731
     21          1           0       -2.690126   -4.310718   -0.059043
     22          6           0       -2.654232   -4.479955   -3.460832
     23          1           0       -2.398907   -2.788628   -4.790366
     24          1           0       -2.841040   -5.952303   -1.886325
     25          1           0       -2.710604   -5.213646   -4.268649
     26          6           0       -3.957926   -0.332149   -0.189450
     27          6           0       -4.453612    0.292549    0.970564
     28          6           0       -4.687395   -0.207242   -1.384661
     29          6           0       -5.646827    1.017764    0.936217
     30          1           0       -3.916686    0.201221    1.915996
     31          6           0       -5.879744    0.521744   -1.416594
     32          1           0       -4.348914   -0.692346   -2.299749
     33          6           0       -6.364596    1.136826   -0.258285
     34          1           0       -6.016695    1.488153    1.851150
     35          1           0       -6.433521    0.601970   -2.355889
     36          1           0       -7.301120    1.699357   -0.285019
     37          6           0        0.679260    3.226721   -0.132801
     38          6           0        1.055412    4.080095    0.916105
     39          6           0        1.245252    3.415370   -1.406594
     40          6           0        1.980304    5.105206    0.692036
     41          1           0        0.631999    3.954755    1.913135
     42          6           0        2.170940    4.436431   -1.624609
     43          1           0        0.960094    2.768167   -2.238858
     44          6           0        2.539708    5.286262   -0.575550
     45          1           0        2.264847    5.762133    1.518286
     46          1           0        2.604626    4.567515   -2.619154
     47          1           0        3.262559    6.087698   -0.747407
     48          6           0       -1.335780    2.219282    1.721870
     49          6           0       -2.583484    2.814874    1.960953
     50          6           0       -0.562274    1.792389    2.819999
     51          6           0       -3.042147    2.992605    3.270959
     52          1           0       -3.218223    3.126859    1.132248
     53          6           0       -1.022895    1.975662    4.125035
     54          1           0        0.411119    1.324236    2.656904
     55          6           0       -2.265054    2.576909    4.355214
     56          1           0       -4.018189    3.453385    3.440457
     57          1           0       -0.408789    1.643443    4.966296
     58          1           0       -2.626888    2.717045    5.376515
     59          6           0       -1.796698    2.549910   -1.244154
     60          6           0       -2.340002    3.848465   -1.169474
     61          6           0       -2.015594    1.789748   -2.401850
     62          6           0       -3.128173    4.342671   -2.209877
     63          1           0       -2.132480    4.489390   -0.310432
     64          6           0       -2.787216    2.295487   -3.453154
     65          1           0       -1.552026    0.804521   -2.489866
     66          6           0       -3.356594    3.568045   -3.352709
     67          1           0       -3.554931    5.346772   -2.132851
     68          1           0       -2.941277    1.691780   -4.351068
     69          1           0       -3.965464    3.962974   -4.169956
     70         50           0        2.573863   -0.147280   -0.074914
     71          6           0        4.041785   -1.744026    0.238491
     72          6           0        4.474295   -2.073354    1.530251
     73          6           0        4.546912   -2.465013   -0.856453
     74          6           0        5.396053   -3.109340    1.728755
     75          1           0        4.107686   -1.513909    2.396224
     76          6           0        5.469162   -3.499875   -0.657245
     77          1           0        4.233311   -2.219433   -1.873240
     78          6           0        5.894206   -3.824962    0.634095
     79          1           0        5.728896   -3.352975    2.741202
     80          1           0        5.856941   -4.051969   -1.518708
     81          1           0        6.615608   -4.632163    0.788226
     82         35           0        0.673529   -2.780391   -0.246758
     83         35           0        3.455435    1.434142    1.833162
     84         35           0        3.582831    0.780497   -2.310296
 ---------------------------------------------------------------------

 SCF Done:  E(RPBE-PBE) =  -33097.6385452     A.U. after    8 cycles

      1  Pt   Isotropic =  3175.8139   Anisotropy =  1489.9299

      2  P    Isotropic =   251.2432   Anisotropy =    72.1022

      3  P    Isotropic =   251.5540   Anisotropy =   118.8528

      4  C    Isotropic =    42.8543   Anisotropy =   267.8308

      5  C    Isotropic =     0.0446   Anisotropy =   125.4551

      6  C    Isotropic =    38.3398   Anisotropy =   173.6923

      7  C    Isotropic =    42.5376   Anisotropy =   160.1236

      8  H    Isotropic =    24.7397   Anisotropy =    10.3748

      9  C    Isotropic =    75.6353   Anisotropy =   215.0498

     10  H    Isotropic =    20.2479   Anisotropy =    18.9425

     11  C    Isotropic =    28.5047   Anisotropy =    86.1271

     12  H    Isotropic =    26.4662   Anisotropy =     3.2471

     13  H    Isotropic =    24.8718   Anisotropy =     6.9104

     14  H    Isotropic =    27.8346   Anisotropy =     7.8258

     15  C    Isotropic =    43.1284   Anisotropy =   357.4934

     16  C    Isotropic =    43.9099   Anisotropy =   254.1341

     17  C    Isotropic =    33.5354   Anisotropy =   229.7184

     18  C    Isotropic =    43.7700   Anisotropy =   193.5691

     19  H    Isotropic =    20.2285   Anisotropy =    15.0905

     20  C    Isotropic =    20.7161   Anisotropy =   140.7858

     21  H    Isotropic =    23.0148   Anisotropy =    12.5296

     22  C    Isotropic =   -17.1204   Anisotropy =   127.1372

     23  H    Isotropic =    24.6975   Anisotropy =     3.8290

     24  H    Isotropic =    26.3824   Anisotropy =     4.7395

     25  H    Isotropic =    27.2760   Anisotropy =     7.8415

     26  C    Isotropic =   -14.2083   Anisotropy =   252.9202

     27  C    Isotropic =   -34.5453   Anisotropy =   102.6952

     28  C    Isotropic =     3.8208   Anisotropy =   146.6820

     29  C    Isotropic =    97.7512   Anisotropy =   304.9753

     30  H    Isotropic =    24.7482   Anisotropy =    10.2402

     31  C    Isotropic =   132.2076   Anisotropy =   355.5396

     32  H    Isotropic =    23.4581   Anisotropy =    14.8453

     33  C    Isotropic =    83.9532   Anisotropy =   172.1033

     34  H    Isotropic =    29.7099   Anisotropy =     9.5445

     35  H    Isotropic =    33.0141   Anisotropy =    20.4791

     36  H    Isotropic =    35.2923   Anisotropy =    27.6627

     37  C    Isotropic =    37.4903   Anisotropy =   237.6509

     38  C    Isotropic =    31.7616   Anisotropy =   203.7262

     39  C    Isotropic =    61.3557   Anisotropy =   247.0948

     40  C    Isotropic =     1.2897   Anisotropy =   125.2867

     41  H    Isotropic =    22.8795   Anisotropy =    10.5279

     42  C    Isotropic =    12.5929   Anisotropy =   151.9302

     43  H    Isotropic =    22.6351   Anisotropy =     9.1921

     44  C    Isotropic =    24.8935   Anisotropy =   270.6455

     45  H    Isotropic =    18.2301   Anisotropy =    12.1227

     46  H    Isotropic =    20.3725   Anisotropy =     9.3370

     47  H    Isotropic =    16.9712   Anisotropy =    13.6926

     48  C    Isotropic =    31.3927   Anisotropy =   209.1424

     49  C    Isotropic =    -8.7498   Anisotropy =   123.9460

     50  C    Isotropic =    49.1330   Anisotropy =   208.1249

     51  C    Isotropic =    39.8149   Anisotropy =   200.3792

     52  H    Isotropic =    21.1601   Anisotropy =    14.8243

     53  C    Isotropic =    96.6279   Anisotropy =   257.0504

     54  H    Isotropic =    19.9086   Anisotropy =    14.6813

     55  C    Isotropic =    58.8877   Anisotropy =   181.5171

     56  H    Isotropic =    22.8762   Anisotropy =     7.0097

     57  H    Isotropic =    25.8983   Anisotropy =     3.9438

     58  H    Isotropic =    26.5091   Anisotropy =     4.6072

     59  C    Isotropic =    32.5942   Anisotropy =   200.1599

     60  C    Isotropic =    25.4360   Anisotropy =   166.0782

     61  C    Isotropic =    33.3948   Anisotropy =   188.7654

     62  C    Isotropic =    49.5659   Anisotropy =   175.4621

     63  H    Isotropic =    24.3923   Anisotropy =    12.3352

     64  C    Isotropic =    48.1788   Anisotropy =   186.5408

     65  H    Isotropic =    20.8375   Anisotropy =    15.0586

     66  C    Isotropic =    34.4197   Anisotropy =   128.5987

     67  H    Isotropic =    25.2185   Anisotropy =     4.0526

     68  H    Isotropic =    23.7440   Anisotropy =     6.3127

     69  H    Isotropic =    25.6121   Anisotropy =     2.6394

     70  Sn   Isotropic =  1987.8342   Anisotropy =   414.1562

     71  C    Isotropic =   150.5859   Anisotropy =   365.0832

     72  C    Isotropic =   113.2784   Anisotropy =   246.9367

     73  C    Isotropic =   105.3110   Anisotropy =   243.4473

     74  C    Isotropic =    54.6537   Anisotropy =   114.9672

     75  H    Isotropic =    18.9141   Anisotropy =    21.0493

     76  C    Isotropic =    47.8563   Anisotropy =    97.6480

     77  H    Isotropic =    19.8017   Anisotropy =    19.2930

     78  C    Isotropic =    -3.0910   Anisotropy =    53.2008

     79  H    Isotropic =    26.1455   Anisotropy =     3.6991

     80  H    Isotropic =    26.6028   Anisotropy =     4.8488

     81  H    Isotropic =    27.6750   Anisotropy =     7.6279

     82  Br   Isotropic =  2514.0685   Anisotropy =  1188.8966

     83  Br   Isotropic =  2368.5477   Anisotropy =   533.6192

     84  Br   Isotropic =  2361.4402   Anisotropy =   587.1413

 The electronic state is 1-A.
 Alpha  occ. eigenvalues -- ********************-478.58842-478.58712-478.57733
 Alpha  occ. eigenvalues -- -427.54270-414.87306-414.87291-414.87017-149.63136
 Alpha  occ. eigenvalues -- -141.90945-141.90934-141.90811 -99.92299 -92.08110
 Alpha  occ. eigenvalues --  -92.08101 -92.07673 -79.04035 -79.03928 -79.03698
 Alpha  occ. eigenvalues --  -79.03685 -79.03611 -76.32700 -76.31254 -61.50715
 Alpha  occ. eigenvalues --  -61.50583 -61.49637 -55.69131 -55.68994 -55.68936
 Alpha  occ. eigenvalues --  -55.68919 -55.68809 -55.68786 -55.68041 -55.67852
 Alpha  occ. eigenvalues --  -55.67832 -28.79708 -25.14406 -25.14371 -25.13986
 Alpha  occ. eigenvalues --  -20.83726 -17.69285 -17.69282 -17.69030 -17.69005
 Alpha  occ. eigenvalues --  -17.68922 -17.40484 -17.40460 -17.39553 -11.58945
 Alpha  occ. eigenvalues --  -11.58557 -11.58071 -11.58046 -11.57887  -9.92731
 Alpha  occ. eigenvalues --   -9.92696  -9.92597  -9.92450  -9.92325  -9.91845
 Alpha  occ. eigenvalues --   -9.91595  -9.91527  -9.91395  -9.91324  -9.91213
 Alpha  occ. eigenvalues --   -9.91197  -9.91187  -9.91170  -9.91168  -9.91146
 Alpha  occ. eigenvalues --   -9.91124  -9.91074  -9.91035  -9.90962  -9.90929
 Alpha  occ. eigenvalues --   -9.90899  -9.90884  -9.90874  -9.90782  -9.90742
 Alpha  occ. eigenvalues --   -9.90730  -9.90719  -9.90718  -9.90714  -9.90663
 Alpha  occ. eigenvalues --   -9.90613  -9.90419  -9.90392  -9.90235  -9.90204
 Alpha  occ. eigenvalues --   -9.89923  -9.89851  -9.89717  -9.89687  -9.89636
 Alpha  occ. eigenvalues --   -9.89530  -8.33622  -8.33480  -8.32667  -6.35533
 Alpha  occ. eigenvalues --   -6.34206  -6.24321  -6.24165  -6.23750  -6.23703
 Alpha  occ. eigenvalues --   -6.23624  -6.23559  -6.23360  -6.22796  -6.22747
 Alpha  occ. eigenvalues --   -4.58091  -4.58065  -4.57802  -4.56766  -4.56750
 Alpha  occ. eigenvalues --   -4.56425  -4.48697  -3.22300  -3.22231  -3.21519
 Alpha  occ. eigenvalues --   -3.13813  -3.13802  -3.13319  -3.13048  -3.12865
 Alpha  occ. eigenvalues --   -3.12848  -3.12771  -2.86746  -2.45305  -2.45163
 Alpha  occ. eigenvalues --   -2.45154  -2.45129  -2.45024  -2.44976  -2.44707
 Alpha  occ. eigenvalues --   -2.44706  -2.44575  -2.44574  -2.44338  -2.44200
 Alpha  occ. eigenvalues --   -2.44167  -2.43750  -2.43749  -1.81872  -1.81497
 Alpha  occ. eigenvalues --   -1.79065  -1.01424  -1.01297  -1.00822  -1.00741
 Alpha  occ. eigenvalues --   -1.00680  -0.80296  -0.79989  -0.79555  -0.79193
 Alpha  occ. eigenvalues --   -0.79050  -0.78827  -0.77955  -0.72202  -0.71863
 Alpha  occ. eigenvalues --   -0.69490  -0.69467  -0.69191  -0.69078  -0.69062
 Alpha  occ. eigenvalues --   -0.68808  -0.68550  -0.68459  -0.68423  -0.68306
 Alpha  occ. eigenvalues --   -0.67802  -0.67756  -0.66643  -0.66277  -0.65708
 Alpha  occ. eigenvalues --   -0.61299  -0.60856  -0.56603  -0.56324  -0.56271
 Alpha  occ. eigenvalues --   -0.55942  -0.55625  -0.55383  -0.55044  -0.54983
 Alpha  occ. eigenvalues --   -0.54921  -0.54825  -0.54479  -0.53729  -0.52273
 Alpha  occ. eigenvalues --   -0.51945  -0.48149  -0.47810  -0.47706  -0.47671
 Alpha  occ. eigenvalues --   -0.46798  -0.46151  -0.45968  -0.42649  -0.42346
 Alpha  occ. eigenvalues --   -0.42305  -0.42140  -0.41756  -0.41569  -0.41415
 Alpha  occ. eigenvalues --   -0.41204  -0.41061  -0.40994  -0.40880  -0.40591
 Alpha  occ. eigenvalues --   -0.40473  -0.40340  -0.39391  -0.39165  -0.38898
 Alpha  occ. eigenvalues --   -0.38706  -0.38569  -0.38515  -0.38431  -0.38105
 Alpha  occ. eigenvalues --   -0.37879  -0.37553  -0.37404  -0.37138  -0.36546
 Alpha  occ. eigenvalues --   -0.35892  -0.34956  -0.34724  -0.34432  -0.34384
 Alpha  occ. eigenvalues --   -0.33968  -0.33684  -0.33643  -0.33550  -0.32820
 Alpha  occ. eigenvalues --   -0.32019  -0.31898  -0.31754  -0.31743  -0.31504
 Alpha  occ. eigenvalues --   -0.31098  -0.31052  -0.30987  -0.30363  -0.30309
 Alpha  occ. eigenvalues --   -0.30178  -0.29986  -0.29618  -0.29502  -0.27906
 Alpha  occ. eigenvalues --   -0.27346  -0.26504  -0.26422  -0.26177  -0.25534
 Alpha  occ. eigenvalues --   -0.25304  -0.25204  -0.25050  -0.24955  -0.24757
 Alpha  occ. eigenvalues --   -0.24682  -0.24591  -0.24411  -0.24205  -0.24094
 Alpha  occ. eigenvalues --   -0.23768  -0.23559  -0.23398  -0.23276  -0.22895
 Alpha  occ. eigenvalues --   -0.22758  -0.22255  -0.21778  -0.21600  -0.20099
 Alpha virt. eigenvalues --   -0.11406  -0.08041  -0.07434  -0.07092  -0.06652
 Alpha virt. eigenvalues --   -0.06545  -0.06372  -0.06237  -0.06018  -0.05915
 Alpha virt. eigenvalues --   -0.05697  -0.05347  -0.04990  -0.04759  -0.04663

 Mulliken charges:
               1
     1  Pt   0.386703
     2  P    1.161957
     3  P    0.964680
     4  C   -0.806919
     5  C    0.365247
     6  C    0.287875
     7  C    0.055156
     8  H    0.099049
     9  C   -0.219448
    10  H    0.082125
    11  C   -0.647427
    12  H    0.146051
    13  H    0.143758
    14  H    0.157209
    15  C   -0.810142
    16  C    0.665554
    17  C    0.229882
    18  C   -0.087193
    19  H    0.068216
    20  C   -0.257580
    21  H    0.103589
    22  C   -0.584372
    23  H    0.144503
    24  H    0.146974
    25  H    0.156417
    26  C   -0.989404
    27  C    0.530659
    28  C    0.302358
    29  C   -0.041338
    30  H    0.067795
    31  C   -0.196310
    32  H    0.072357
    33  C   -0.567746
    34  H    0.124712
    35  H    0.133136
    36  H    0.146513
    37  C   -0.951108
    38  C    0.252761
    39  C    0.398266
    40  C   -0.107702
    41  H    0.084965
    42  C   -0.022583
    43  H    0.102787
    44  C   -0.500394
    45  H    0.136465
    46  H    0.136529
    47  H    0.149891
    48  C   -0.747941
    49  C    0.464348
    50  C    0.344337
    51  C   -0.171864
    52  H    0.055503
    53  C   -0.071803
    54  H    0.070268
    55  C   -0.538865
    56  H    0.129187
    57  H    0.137139
    58  H    0.151581
    59  C   -0.810411
    60  C    0.181799
    61  C    0.592870
    62  C    0.020717
    63  H    0.094300
    64  C   -0.226339
    65  H    0.046909
    66  C   -0.581925
    67  H    0.144086
    68  H    0.123943
    69  H    0.150706
    70  Sn  -0.023563
    71  C    0.108753
    72  C   -0.180239
    73  C   -0.080388
    74  C   -0.131399
    75  H    0.141516
    76  C   -0.158329
    77  H    0.137824
    78  C   -0.412362
    79  H    0.158639
    80  H    0.157886
    81  H    0.158099
    82  Br  -0.244875
    83  Br  -0.206354
    84  Br  -0.198224
 Sum of Mulliken charges =   0.00000

 Dipole moment (field-independent basis, Debye):
    X=            -15.9646    Y=              3.4734    Z=              1.4655  Tot=             16.4037
 Quadrupole moment (field-independent basis, Debye-Ang):
   XX=           -374.6795   YY=           -351.2316   ZZ=           -342.7431
   XY=             -9.5807   XZ=              4.4312   YZ=             -1.6805

 Normal termination of Gaussian 09 at Mon Nov 25 08:55:23 2019.
