 Gaussian 09, Revision D.01,
 Gaussian 09:  EM64L-G09RevD.01 24-Apr-2013

 ----------------------------------------------------------------------
 #PBEPBE/gen scf=(maxcycle=500,conver=4) NMR=GIAO Scrf=(solvent=Dichlor
 omethane)
 ----------------------------------------------------------------------

 ------------
 estrutura 78
 ------------
 Symbolic Z-matrix:
 Charge =  0 Multiplicity = 1

                         Standard orientation:
 ---------------------------------------------------------------------
 Center     Atomic      Atomic             Coordinates (Angstroms)
 Number     Number       Type             X           Y           Z
 ---------------------------------------------------------------------
      1         78           0        0.143770   -0.003398    0.077092
      2         15           0       -0.129155    2.388168    0.104275
      3         15           0        0.442477   -2.385880   -0.004180
      4          6           0       -0.651900    3.003248   -1.564682
      5          1           0       -1.512023    2.383653   -1.860256
      6          1           0        0.174141    2.731318   -2.242505
      7          6           0       -1.008002    4.487074   -1.695877
      8          1           0       -0.195789    5.150447   -1.361322
      9          1           0       -1.213979    4.725009   -2.751775
     10          1           0       -1.913464    4.738470   -1.123458
     11          6           0       -1.471268    2.852316    1.315949
     12          1           0       -1.438758    2.085679    2.105432
     13          6           0        1.327701    3.442646    0.564347
     14          1           0        0.926986    4.425467    0.856040
     15          1           0        1.762378    2.999586    1.473748
     16          6           0        2.396026    3.624155   -0.518316
     17          1           0        3.240179    4.201862   -0.109713
     18          1           0        2.793545    2.665211   -0.877659
     19          1           0        2.009931    4.179013   -1.386517
     20          6           0       -0.686468   -3.353549    1.101300
     21          1           0       -0.443191   -4.419381    0.960051
     22          1           0       -1.705815   -3.221043    0.705635
     23          6           0       -0.614910   -2.963082    2.579579
     24          1           0        0.396708   -3.095555    2.994781
     25          1           0       -0.915395   -1.915235    2.730422
     26          1           0       -1.299496   -3.592955    3.169162
     27          6           0        2.143490   -2.992447    0.421431
     28          1           0        2.830497   -2.496731   -0.280373
     29          1           0        2.383454   -2.574081    1.411205
     30          6           0        2.356851   -4.508528    0.403657
     31          1           0        3.412795   -4.733341    0.621365
     32          1           0        1.750840   -5.025769    1.162580
     33          1           0        2.125180   -4.951676   -0.576844
     34          6           0        0.090775   -3.056846   -1.693157
     35          1           0        0.259870   -4.145891   -1.666860
     36          1           0       -0.988818   -2.911486   -1.854688
     37          6           0        0.899700   -2.398194   -2.812782
     38          1           0        0.601470   -2.810057   -3.789552
     39          1           0        0.730041   -1.309977   -2.838130
     40          1           0        1.981717   -2.569436   -2.700231
     41         50           0       -2.551228   -0.309237   -0.219025
     42         17           0       -3.633927   -0.418061    1.974533
     43         17           0       -4.013880    1.367258   -1.257068
     44         17           0       -3.609055   -2.277733   -1.233895
     45          6           0       -1.459798    4.248882    1.944491
     46          1           0       -2.357491    4.369946    2.571869
     47          1           0       -0.585434    4.402440    2.594886
     48          1           0       -1.473639    5.053424    1.194699
     49          1           0       -2.414303    2.687130    0.768966
     50          6           0        2.121534    0.198031    0.585303
     51          6           0        3.145407    0.163061   -0.372868
     52          6           0        2.494768    0.340723    1.936654
     53          6           0        4.481610    0.262238    0.029874
     54          1           0        2.933315    0.053590   -1.436302
     55          6           0        3.839151    0.438618    2.322288
     56          1           0        1.724187    0.373047    2.712000
     57          6           0        4.855570    0.400827    1.367679
     58          1           0        4.093820    0.543885    3.379769
     59          1           0        5.908236    0.472963    1.637027
     60          8           0        6.694039    0.364478   -0.644277
     61          8           0        5.196854    0.032459   -2.163188
     62          7           0        5.534845    0.213952   -1.001006
 ---------------------------------------------------------------------

 SCF Done:  E(RPBE-PBE) =  -26064.4848711     A.U. after   12 cycles

      1  Pt   Isotropic =  2933.6287   Anisotropy =  1026.0728

      2  P    Isotropic =   285.1233   Anisotropy =    43.3960

      3  P    Isotropic =   274.8204   Anisotropy =    49.0119

      4  C    Isotropic =   154.6368   Anisotropy =    35.7417

      5  H    Isotropic =    28.4761   Anisotropy =     9.8069

      6  H    Isotropic =    29.2146   Anisotropy =     6.1108

      7  C    Isotropic =   172.6481   Anisotropy =    21.3469

      8  H    Isotropic =    30.4558   Anisotropy =     8.7651

      9  H    Isotropic =    30.1510   Anisotropy =    13.2611

     10  H    Isotropic =    30.2301   Anisotropy =     7.7045

     11  C    Isotropic =   151.9835   Anisotropy =    30.8357

     12  H    Isotropic =    28.9297   Anisotropy =     7.5512

     13  C    Isotropic =   167.2754   Anisotropy =    22.2197

     14  H    Isotropic =    29.4398   Anisotropy =     9.0300

     15  H    Isotropic =    30.3749   Anisotropy =     6.3559

     16  C    Isotropic =   174.4755   Anisotropy =    20.4470

     17  H    Isotropic =    30.9732   Anisotropy =    12.2074

     18  H    Isotropic =    31.1698   Anisotropy =    10.6700

     19  H    Isotropic =    30.8833   Anisotropy =     9.1883

     20  C    Isotropic =   155.7456   Anisotropy =    20.6533

     21  H    Isotropic =    29.1683   Anisotropy =     9.9420

     22  H    Isotropic =    29.2240   Anisotropy =     8.6318

     23  C    Isotropic =   171.2638   Anisotropy =    18.2964

     24  H    Isotropic =    30.6991   Anisotropy =     9.3265

     25  H    Isotropic =    30.2715   Anisotropy =     5.4992

     26  H    Isotropic =    30.0193   Anisotropy =    13.3099

     27  C    Isotropic =   164.4395   Anisotropy =    28.0588

     28  H    Isotropic =    30.3459   Anisotropy =     9.4560

     29  H    Isotropic =    30.8233   Anisotropy =     7.5179

     30  C    Isotropic =   177.5760   Anisotropy =    18.1218

     31  H    Isotropic =    30.6248   Anisotropy =    13.0140

     32  H    Isotropic =    30.7544   Anisotropy =    10.1440

     33  H    Isotropic =    30.7598   Anisotropy =     9.8650

     34  C    Isotropic =   156.8905   Anisotropy =    20.7725

     35  H    Isotropic =    29.2945   Anisotropy =     9.9212

     36  H    Isotropic =    28.8031   Anisotropy =    10.5543

     37  C    Isotropic =   171.3268   Anisotropy =    20.0067

     38  H    Isotropic =    29.9965   Anisotropy =    13.3477

     39  H    Isotropic =    30.2075   Anisotropy =     6.0137

     40  H    Isotropic =    30.3523   Anisotropy =     9.3402

     41  Sn   Isotropic =  2138.0020   Anisotropy =   825.5408

     42  Cl   Isotropic =   759.8308   Anisotropy =   315.3207

     43  Cl   Isotropic =   749.2643   Anisotropy =   293.8800

     44  Cl   Isotropic =   754.0242   Anisotropy =   297.8161

     45  C    Isotropic =   170.2997   Anisotropy =    22.4847

     46  H    Isotropic =    30.0372   Anisotropy =    12.4275

     47  H    Isotropic =    30.3660   Anisotropy =     9.2869

     48  H    Isotropic =    30.4671   Anisotropy =     8.5488

     49  H    Isotropic =    28.5696   Anisotropy =     9.1908

     50  C    Isotropic =     8.9533   Anisotropy =   200.0267

     51  C    Isotropic =    65.1211   Anisotropy =   191.1792

     52  C    Isotropic =    39.4162   Anisotropy =   167.2587

     53  C    Isotropic =    53.6031   Anisotropy =   160.8666

     54  H    Isotropic =    22.5510   Anisotropy =    13.9238

     55  C    Isotropic =    37.6822   Anisotropy =   162.4305

     56  H    Isotropic =    23.0229   Anisotropy =    14.8935

     57  C    Isotropic =    66.0821   Anisotropy =   207.4923

     58  H    Isotropic =    21.8834   Anisotropy =     8.0888

     59  H    Isotropic =    22.3595   Anisotropy =     4.7764

     60  O    Isotropic =  -260.4097   Anisotropy =   702.7810

     61  O    Isotropic =  -258.7320   Anisotropy =   694.0533

     62  N    Isotropic =  -119.6344   Anisotropy =   231.1654

 The electronic state is 1-A.
 Alpha  occ. eigenvalues -- ********************-427.54022-414.87068-414.87033
 Alpha  occ. eigenvalues -- -414.86752-149.65319-141.93134-141.93131-141.93060
 Alpha  occ. eigenvalues -- -100.55772-100.55586-100.55547 -99.92062 -92.07916
 Alpha  occ. eigenvalues --  -92.07808 -92.07440 -79.03802 -79.03683 -79.03477
 Alpha  occ. eigenvalues --  -79.03424 -79.03374 -76.30119 -76.29992 -28.81664
 Alpha  occ. eigenvalues --  -25.16297 -25.16293 -25.16066 -20.83539 -18.79458
 Alpha  occ. eigenvalues --  -18.79317 -17.71197 -17.71197 -17.71044 -17.71043
 Alpha  occ. eigenvalues --  -17.70996 -17.40375 -17.40175 -17.39386 -14.22495
 Alpha  occ. eigenvalues --  -11.58767 -11.58347 -11.57918 -11.57819 -11.57719
 Alpha  occ. eigenvalues --   -9.95390  -9.91852  -9.91392  -9.91387  -9.91139
 Alpha  occ. eigenvalues --   -9.91101  -9.91003  -9.90901  -9.90856  -9.90851
 Alpha  occ. eigenvalues --   -9.90800  -9.90739  -9.89132  -9.89130  -9.89086
 Alpha  occ. eigenvalues --   -9.89076  -9.88993  -9.88987  -9.13594  -9.13442
 Alpha  occ. eigenvalues --   -9.13370  -6.97359  -6.97203  -6.97134  -6.96803
 Alpha  occ. eigenvalues --   -6.96790  -6.96650  -6.96634  -6.96579  -6.96566
 Alpha  occ. eigenvalues --   -6.33126  -6.33030  -4.55656  -4.55649  -4.55556
 Alpha  occ. eigenvalues --   -4.55542  -4.55389  -4.55300  -4.50325  -3.23768
 Alpha  occ. eigenvalues --   -3.23747  -3.23345  -3.13630  -3.13603  -3.13139
 Alpha  occ. eigenvalues --   -3.12841  -3.12712  -3.12635  -3.12591  -2.86516
 Alpha  occ. eigenvalues --   -1.81544  -1.81378  -1.78813  -1.15245  -1.02805
 Alpha  occ. eigenvalues --   -1.02795  -1.02422  -1.02400  -1.02287  -0.98451
 Alpha  occ. eigenvalues --   -0.80849  -0.73763  -0.73611  -0.73190  -0.72200
 Alpha  occ. eigenvalues --   -0.70690  -0.70578  -0.69701  -0.69616  -0.69444
 Alpha  occ. eigenvalues --   -0.69295  -0.69039  -0.63438  -0.61467  -0.61190
 Alpha  occ. eigenvalues --   -0.57460  -0.57087  -0.56642  -0.56020  -0.55698
 Alpha  occ. eigenvalues --   -0.53345  -0.50582  -0.49713  -0.49261  -0.48491
 Alpha  occ. eigenvalues --   -0.47196  -0.45347  -0.43375  -0.42722  -0.42606
 Alpha  occ. eigenvalues --   -0.42415  -0.42047  -0.41722  -0.40953  -0.40531
 Alpha  occ. eigenvalues --   -0.39849  -0.38815  -0.38409  -0.38171  -0.37863
 Alpha  occ. eigenvalues --   -0.37536  -0.37436  -0.36947  -0.36766  -0.35327
 Alpha  occ. eigenvalues --   -0.35282  -0.34963  -0.34211  -0.33735  -0.33663
 Alpha  occ. eigenvalues --   -0.33494  -0.33222  -0.32807  -0.32660  -0.32441
 Alpha  occ. eigenvalues --   -0.32245  -0.32093  -0.31773  -0.31601  -0.31093
 Alpha  occ. eigenvalues --   -0.30764  -0.30609  -0.29249  -0.29084  -0.28932
 Alpha  occ. eigenvalues --   -0.28553  -0.28400  -0.27752  -0.27565  -0.27535
 Alpha  occ. eigenvalues --   -0.27443  -0.26322  -0.26056  -0.25933  -0.25890
 Alpha  occ. eigenvalues --   -0.25716  -0.25325  -0.24925  -0.24265  -0.22553
 Alpha  occ. eigenvalues --   -0.22124  -0.20529
 Alpha virt. eigenvalues --   -0.12792  -0.08487  -0.06464  -0.05784  -0.04676
 Alpha virt. eigenvalues --   -0.03897  -0.03175  -0.02331  -0.01790  -0.01659
 Alpha virt. eigenvalues --   -0.00673  -0.00452  -0.00163   0.00089   0.00636

 Mulliken charges:
               1
     1  Pt   0.410956
     2  P    0.058520
     3  P    0.236543
     4  C   -0.311659
     5  H    0.086185
     6  H    0.092535
     7  C   -0.181672
     8  H    0.109872
     9  H    0.135611
    10  H    0.114930
    11  C   -0.335662
    12  H    0.096359
    13  C   -0.346617
    14  H    0.114407
    15  H    0.085712
    16  C   -0.107508
    17  H    0.118777
    18  H    0.065057
    19  H    0.098878
    20  C   -0.437913
    21  H    0.111095
    22  H    0.085406
    23  C   -0.101812
    24  H    0.103022
    25  H    0.076102
    26  H    0.130348
    27  C   -0.414429
    28  H    0.076369
    29  H    0.082676
    30  C   -0.185983
    31  H    0.137931
    32  H    0.115446
    33  H    0.114581
    34  C   -0.423987
    35  H    0.106217
    36  H    0.085496
    37  C   -0.109846
    38  H    0.136197
    39  H    0.071785
    40  H    0.099762
    41  Sn   0.354214
    42  Cl  -0.302003
    43  Cl  -0.259364
    44  Cl  -0.243173
    45  C   -0.176789
    46  H    0.133391
    47  H    0.117024
    48  H    0.110322
    49  H    0.081810
    50  C    0.585321
    51  C   -0.577622
    52  C    0.067717
    53  C    0.420237
    54  H    0.031171
    55  C   -0.041185
    56  H    0.068613
    57  C   -0.843671
    58  H    0.140859
    59  H    0.145944
    60  O   -0.066540
    61  O   -0.091282
    62  N   -0.054684
 Sum of Mulliken charges =   0.00000

 Dipole moment (field-independent basis, Debye):
    X=              7.4458    Y=              1.7320    Z=              3.8493  Tot=              8.5590
 Quadrupole moment (field-independent basis, Debye-Ang):
   XX=           -337.1223   YY=           -217.7199   ZZ=           -251.2196
   XY=            -11.5861   XZ=             15.9889   YZ=              1.1608

 Normal termination of Gaussian 09 at Mon Nov  4 15:20:56 2019.
