 Gaussian 09, Revision A.02,
 Gaussian 09:  EM64L-G09RevA.02 11-Jun-2009

 ----------------------------------------------------------------------
 #PBEPBE/gen scf=(maxcycle=500,conver=4) NMR=GIAO Scrf=(solvent=Dichlor
 omethane)
 ----------------------------------------------------------------------

 ------------
 estrutura 49
 ------------
 Symbolic Z-matrix:
 Charge =  0 Multiplicity = 1

                         Standard orientation:
 ---------------------------------------------------------------------
 Center     Atomic      Atomic             Coordinates (Angstroms)
 Number     Number       Type             X           Y           Z
 ---------------------------------------------------------------------
      1         78           0       -2.065932    1.039995   -0.240250
      2         17           0        0.176308    2.166912   -0.621960
      3         17           0       -3.020901    3.077504    0.494905
      4         17           0       -0.841284   -0.909346   -1.020836
      5         15           0       -4.073991   -0.007902    0.008647
      6         78           0        1.389514    0.007593   -0.373416
      7         50           0        2.191926   -2.431532   -0.079262
      8         17           0        1.301961   -3.536505    1.861463
      9         17           0        1.461011   -3.895933   -1.843293
     10         17           0        4.509556   -3.055556    0.047144
     11         15           0        3.445431    0.887508    0.120594
     12          6           0       -5.386093    0.908117   -0.884850
     13          6           0       -6.666409    1.097965   -0.337087
     14          6           0       -5.102342    1.448447   -2.151661
     15          6           0       -7.634100    1.810491   -1.046966
     16          1           0       -6.912294    0.702090    0.651262
     17          6           0       -6.083435    2.145516   -2.858230
     18          1           0       -4.105449    1.336056   -2.585012
     19          6           0       -7.367670    2.341579   -2.319666
     20          1           0       -8.618919    1.963476   -0.596739
     21          1           0       -5.842365    2.557969   -3.841749
     22          6           0       -4.056806   -1.705597   -0.686083
     23          6           0       -4.670381   -2.018911   -1.910415
     24          6           0       -3.360404   -2.717065   -0.004105
     25          6           0       -4.585596   -3.310841   -2.433409
     26          1           0       -5.223826   -1.257042   -2.460331
     27          6           0       -3.278056   -4.003460   -0.535319
     28          1           0       -2.870235   -2.502442    0.946082
     29          6           0       -3.882798   -4.324756   -1.764002
     30          1           0       -5.075567   -3.534040   -3.387219
     31          1           0       -2.716301   -4.769200    0.008522
     32          6           0       -4.626697   -0.222950    1.743557
     33          6           0       -5.523614   -1.257665    2.071300
     34          6           0       -4.208273    0.655633    2.756906
     35          6           0       -5.984540   -1.406697    3.377448
     36          1           0       -5.865530   -1.960362    1.303316
     37          6           0       -4.678739    0.494335    4.063480
     38          1           0       -3.527100    1.474955    2.519066
     39          6           0       -5.569318   -0.533849    4.400734
     40          1           0       -6.680836   -2.217723    3.607841
     41          1           0       -4.343502    1.192261    4.837898
     42          6           0        3.428669    2.720006    0.231238
     43          6           0        3.363001    3.473668   -0.954290
     44          6           0        3.438712    3.395647    1.461040
     45          6           0        3.310863    4.865021   -0.904622
     46          1           0        3.346724    2.975676   -1.926089
     47          6           0        3.388588    4.791115    1.498355
     48          1           0        3.487407    2.840438    2.398337
     49          6           0        3.323203    5.552338    0.320876
     50          1           0        3.253164    5.430318   -1.838859
     51          1           0        3.399860    5.297086    2.466822
     52          6           0        4.028237    0.304423    1.760210
     53          6           0        5.363806   -0.007428    2.065031
     54          6           0        3.068780    0.221328    2.785345
     55          6           0        5.725644   -0.368380    3.361932
     56          1           0        6.131370    0.016728    1.293586
     57          6           0        3.443375   -0.135040    4.081460
     58          1           0        2.017326    0.435683    2.573723
     59          6           0        4.778092   -0.431150    4.398075
     60          1           0        6.771537   -0.607484    3.573760
     61          1           0        2.678812   -0.186553    4.861091
     62          6           0        4.643960    0.542714   -1.227208
     63          6           0        5.994538    0.935920   -1.155226
     64          6           0        4.175717   -0.021409   -2.428162
     65          6           0        6.851734    0.722323   -2.236423
     66          1           0        6.394462    1.429795   -0.266456
     67          6           0        5.033287   -0.206588   -3.512540
     68          1           0        3.124493   -0.298452   -2.524374
     69          6           0        6.390319    0.147061   -3.434827
     70          1           0        7.902338    1.023269   -2.149933
     71          1           0        4.635138   -0.632140   -4.438295
     72          6           0        7.318384   -0.090687   -4.598816
     73          1           0        8.229810    0.523535   -4.526164
     74          1           0        7.631172   -1.150016   -4.634941
     75          1           0        6.822702    0.131318   -5.559240
     76          6           0        5.189064   -0.819066    5.795100
     77          1           0        5.511619   -1.873740    5.832319
     78          1           0        6.040666   -0.210982    6.141037
     79          1           0        4.362777   -0.693482    6.509677
     80          6           0        3.289864    7.058411    0.368841
     81          1           0        2.785190    7.420956    1.276933
     82          1           0        4.313603    7.471868    0.376999
     83          1           0        2.774939    7.478791   -0.507737
     84          6           0       -6.049991   -0.727188    5.816502
     85          1           0       -7.127333   -0.955826    5.846488
     86          1           0       -5.528112   -1.576284    6.292408
     87          1           0       -5.865157    0.164780    6.433623
     88          6           0       -8.435035    3.085285   -3.082486
     89          1           0       -9.212817    2.388653   -3.444923
     90          1           0       -8.941400    3.827002   -2.441699
     91          1           0       -8.019175    3.609514   -3.956575
     92          6           0       -3.776156   -5.706914   -2.357555
     93          1           0       -4.772132   -6.123371   -2.581672
     94          1           0       -3.217591   -5.682112   -3.309274
     95          1           0       -3.258085   -6.400918   -1.680248
 ---------------------------------------------------------------------

 SCF Done:  E(RPBE-PBE) =  -45269.2818353     A.U. after   15 cycles

  1  Pt   Isotropic =  1621.6008   Anisotropy =  3362.9444

  2  Cl   Isotropic =   913.8033   Anisotropy =   220.9398

  3  Cl   Isotropic =   923.9973   Anisotropy =   218.8100

  4  Cl   Isotropic =   977.2648   Anisotropy =   317.1874

  5  P    Isotropic =   214.5076   Anisotropy =   136.1765

  6  Pt   Isotropic =  2635.9519   Anisotropy =  2650.5903

  7  Sn   Isotropic =  2102.3304   Anisotropy =   753.9192

  8  Cl   Isotropic =   761.4832   Anisotropy =   341.4250

  9  Cl   Isotropic =   762.2200   Anisotropy =   320.3418

 10  Cl   Isotropic =   771.6910   Anisotropy =   285.7482

 11  P    Isotropic =   230.0765   Anisotropy =   141.9226

 12  C    Isotropic =    50.1450   Anisotropy =   208.8337

 13  C    Isotropic =    22.4186   Anisotropy =   133.0937

 14  C    Isotropic =    42.6258   Anisotropy =   180.5831

 15  C    Isotropic =    39.4350   Anisotropy =   161.6199

 16  H    Isotropic =    24.1434   Anisotropy =    14.8469

 17  C    Isotropic =    55.0029   Anisotropy =   165.1890

 18  H    Isotropic =    22.2021   Anisotropy =    14.9671

 19  C    Isotropic =    44.9883   Anisotropy =   256.7787

 20  H    Isotropic =    21.3443   Anisotropy =    12.1292

 21  H    Isotropic =    23.8337   Anisotropy =     8.7554

 22  C    Isotropic =    23.9310   Anisotropy =   185.6595

 23  C    Isotropic =    32.2078   Anisotropy =   164.9814

 24  C    Isotropic =    35.1192   Anisotropy =   200.9892

 25  C    Isotropic =    51.2786   Anisotropy =   167.9367

 26  H    Isotropic =    23.8537   Anisotropy =    12.7687

 27  C    Isotropic =    50.2493   Anisotropy =   167.8403

 28  H    Isotropic =    24.3170   Anisotropy =     8.2871

 29  C    Isotropic =    35.9524   Anisotropy =   204.9897

 30  H    Isotropic =    24.1930   Anisotropy =     7.0771

 31  H    Isotropic =    24.2533   Anisotropy =     7.0411

 32  C    Isotropic =    30.6520   Anisotropy =   166.8671

 33  C    Isotropic =    18.0908   Anisotropy =   139.6480

 34  C    Isotropic =    35.6677   Anisotropy =   182.4794

 35  C    Isotropic =    35.3517   Anisotropy =   147.8766

 36  H    Isotropic =    24.1910   Anisotropy =    13.3719

 37  C    Isotropic =    55.0251   Anisotropy =   168.0695

 38  H    Isotropic =    22.3624   Anisotropy =    14.6220

 39  C    Isotropic =    53.3441   Anisotropy =   277.4729

 40  H    Isotropic =    22.4987   Anisotropy =     9.5673

 41  H    Isotropic =    24.4387   Anisotropy =     8.2358

 42  C    Isotropic =    52.2043   Anisotropy =   197.0636

 43  C    Isotropic =    46.8665   Anisotropy =   198.8852

 44  C    Isotropic =    56.8397   Anisotropy =   199.9181

 45  C    Isotropic =    57.6700   Anisotropy =   167.8327

 46  H    Isotropic =    24.4211   Anisotropy =    12.0305

 47  C    Isotropic =    54.0836   Anisotropy =   165.4815

 48  H    Isotropic =    24.4113   Anisotropy =    13.2297

 49  C    Isotropic =    39.9187   Anisotropy =   173.2878

 50  H    Isotropic =    25.3816   Anisotropy =     6.2847

 51  H    Isotropic =    25.3024   Anisotropy =     6.6956

 52  C    Isotropic =    56.8044   Anisotropy =   183.7988

 53  C    Isotropic =    48.6578   Anisotropy =   176.2462

 54  C    Isotropic =    47.0913   Anisotropy =   181.5318

 55  C    Isotropic =    55.2693   Anisotropy =   178.3422

 56  H    Isotropic =    23.5166   Anisotropy =    10.4172

 57  C    Isotropic =    57.0498   Anisotropy =   167.7996

 58  H    Isotropic =    21.7383   Anisotropy =    14.0701

 59  C    Isotropic =    30.8818   Anisotropy =   170.6156

 60  H    Isotropic =    24.4562   Anisotropy =     6.4639

 61  H    Isotropic =    23.5230   Anisotropy =     9.2089

 62  C    Isotropic =    55.9431   Anisotropy =   183.3138

 63  C    Isotropic =    38.4544   Anisotropy =   162.9139

 64  C    Isotropic =    47.5342   Anisotropy =   178.7883

 65  C    Isotropic =    47.1496   Anisotropy =   157.8610

 66  H    Isotropic =    23.6725   Anisotropy =    11.2779

 67  C    Isotropic =    57.3270   Anisotropy =   170.3948

 68  H    Isotropic =    21.4124   Anisotropy =    18.3648

 69  C    Isotropic =    28.7470   Anisotropy =   176.5534

 70  H    Isotropic =    23.7966   Anisotropy =     7.0495

 71  H    Isotropic =    23.7676   Anisotropy =    10.3822

 72  C    Isotropic =   159.0580   Anisotropy =    46.1979

 73  H    Isotropic =    29.5066   Anisotropy =     7.8562

 74  H    Isotropic =    28.8335   Anisotropy =     8.5430

 75  H    Isotropic =    28.9571   Anisotropy =     8.0259

 76  C    Isotropic =   159.8107   Anisotropy =    46.2395

 77  H    Isotropic =    28.8426   Anisotropy =     8.0625

 78  H    Isotropic =    29.0894   Anisotropy =     8.9929

 79  H    Isotropic =    29.1741   Anisotropy =     7.0886

 80  C    Isotropic =   154.4280   Anisotropy =    61.2957

 81  H    Isotropic =    29.6328   Anisotropy =     7.0200

 82  H    Isotropic =    29.9624   Anisotropy =     8.5373

 83  H    Isotropic =    29.6842   Anisotropy =     7.1011

 84  C    Isotropic =   149.0701   Anisotropy =    62.6980

 85  H    Isotropic =    29.2850   Anisotropy =     8.0757

 86  H    Isotropic =    28.6062   Anisotropy =     7.8423

 87  H    Isotropic =    29.4741   Anisotropy =     6.4558

 88  C    Isotropic =   160.5340   Anisotropy =    42.4834

 89  H    Isotropic =    28.5187   Anisotropy =     9.2068

 90  H    Isotropic =    28.5158   Anisotropy =     8.2250

 91  H    Isotropic =    28.7448   Anisotropy =     7.7774

 92  C    Isotropic =   152.9526   Anisotropy =    53.0884

 93  H    Isotropic =    29.0916   Anisotropy =     9.8601

 94  H    Isotropic =    28.8847   Anisotropy =     7.5211

 95  H    Isotropic =    29.5961   Anisotropy =     5.6146

 The electronic state is 1-A.
 Alpha  occ. eigenvalues -- ******************************-427.54607-427.53908
 Alpha  occ. eigenvalues -- -414.87675-414.87604-414.87327-414.87002-414.86904
 Alpha  occ. eigenvalues -- -414.86582-149.66664-141.94473-141.94469-141.94405
 Alpha  occ. eigenvalues -- -100.57100-100.56551-100.56367-100.56350-100.55515
 Alpha  occ. eigenvalues -- -100.53339 -99.92653 -99.91982 -92.08544 -92.08410
 Alpha  occ. eigenvalues --  -92.07981 -92.07965 -92.07705 -92.07246 -79.04424
 Alpha  occ. eigenvalues --  -79.04295 -79.04060 -79.03985 -79.03925 -79.03818
 Alpha  occ. eigenvalues --  -79.03634 -79.03402 -79.03235 -79.03205 -76.33352
 Alpha  occ. eigenvalues --  -76.33055 -28.83066 -25.17697 -25.17684 -25.17476
 Alpha  occ. eigenvalues --  -20.84103 -20.83477 -17.72583 -17.72582 -17.72442
 Alpha  occ. eigenvalues --  -17.72435 -17.72394 -17.41011 -17.40752 -17.40555
 Alpha  occ. eigenvalues --  -17.40079 -17.39855 -17.39105 -11.59412 -11.58974
 Alpha  occ. eigenvalues --  -11.58952 -11.58478 -11.58335 -11.58324 -11.58202
 Alpha  occ. eigenvalues --  -11.57894 -11.57531 -11.57500  -9.92857  -9.92733
 Alpha  occ. eigenvalues --   -9.92449  -9.92387  -9.92300  -9.92203  -9.92158
 Alpha  occ. eigenvalues --   -9.91991  -9.91964  -9.91860  -9.91764  -9.91745
 Alpha  occ. eigenvalues --   -9.91560  -9.91463  -9.91456  -9.91274  -9.91122
 Alpha  occ. eigenvalues --   -9.91091  -9.91090  -9.91068  -9.90912  -9.90894
 Alpha  occ. eigenvalues --   -9.90883  -9.90878  -9.90715  -9.90630  -9.90626
 Alpha  occ. eigenvalues --   -9.90512  -9.90367  -9.90362  -9.90357  -9.90325
 Alpha  occ. eigenvalues --   -9.90305  -9.90220  -9.90200  -9.90134  -9.89171
 Alpha  occ. eigenvalues --   -9.89114  -9.89060  -9.89058  -9.88989  -9.88881
 Alpha  occ. eigenvalues --   -9.14898  -9.14424  -9.14246  -9.14225  -9.13315
 Alpha  occ. eigenvalues --   -9.11184  -6.98538  -6.98355  -6.98236  -6.98061
 Alpha  occ. eigenvalues --   -6.98035  -6.97972  -6.97597  -6.97591  -6.97419
 Alpha  occ. eigenvalues --   -6.97408  -6.97404  -6.97388  -6.96879  -6.96799
 Alpha  occ. eigenvalues --   -6.96441  -6.95039  -6.94352  -6.94320  -6.36249
 Alpha  occ. eigenvalues --   -6.35942  -4.58758  -4.58740  -4.58595  -4.58446
 Alpha  occ. eigenvalues --   -4.58430  -4.58300  -4.51823  -3.25258  -3.25233
 Alpha  occ. eigenvalues --   -3.24897  -3.14267  -3.14231  -3.13788  -3.13728
 Alpha  occ. eigenvalues --   -3.13722  -3.13393  -3.13244  -3.13170  -3.13113
 Alpha  occ. eigenvalues --   -3.13070  -3.12688  -3.12619  -3.12336  -3.12334
 Alpha  occ. eigenvalues --   -2.87101  -2.86473  -1.82392  -1.81903  -1.81867
 Alpha  occ. eigenvalues --   -1.81296  -1.79301  -1.78408  -1.04361  -1.04348
 Alpha  occ. eigenvalues --   -1.03959  -1.03927  -1.03885  -0.80449  -0.80181
 Alpha  occ. eigenvalues --   -0.79723  -0.79508  -0.79367  -0.79292  -0.73692
 Alpha  occ. eigenvalues --   -0.73484  -0.73231  -0.72560  -0.71574  -0.71492
 Alpha  occ. eigenvalues --   -0.71426  -0.71232  -0.71158  -0.71038  -0.70697
 Alpha  occ. eigenvalues --   -0.69247  -0.69021  -0.68915  -0.68821  -0.68699
 Alpha  occ. eigenvalues --   -0.68625  -0.68496  -0.65960  -0.65738  -0.62915
 Alpha  occ. eigenvalues --   -0.62646  -0.62629  -0.62502  -0.58344  -0.58065
 Alpha  occ. eigenvalues --   -0.56627  -0.56245  -0.56179  -0.55833  -0.55788
 Alpha  occ. eigenvalues --   -0.55722  -0.53824  -0.53717  -0.53491  -0.53440
 Alpha  occ. eigenvalues --   -0.52177  -0.51748  -0.46945  -0.46765  -0.46615
 Alpha  occ. eigenvalues --   -0.46466  -0.44246  -0.43877  -0.43487  -0.43138
 Alpha  occ. eigenvalues --   -0.43015  -0.42933  -0.42821  -0.42709  -0.42631
 Alpha  occ. eigenvalues --   -0.41439  -0.41010  -0.40963  -0.40905  -0.40589
 Alpha  occ. eigenvalues --   -0.40230  -0.38901  -0.38569  -0.38427  -0.38411
 Alpha  occ. eigenvalues --   -0.38341  -0.38271  -0.38234  -0.38136  -0.38056
 Alpha  occ. eigenvalues --   -0.38029  -0.37992  -0.37877  -0.37654  -0.37500
 Alpha  occ. eigenvalues --   -0.37199  -0.37030  -0.36881  -0.36643  -0.35931
 Alpha  occ. eigenvalues --   -0.35005  -0.34859  -0.34601  -0.34574  -0.34462
 Alpha  occ. eigenvalues --   -0.34412  -0.34367  -0.34178  -0.33827  -0.33635
 Alpha  occ. eigenvalues --   -0.33269  -0.33156  -0.33037  -0.32951  -0.32902
 Alpha  occ. eigenvalues --   -0.32584  -0.32357  -0.31628  -0.31286  -0.31255
 Alpha  occ. eigenvalues --   -0.31163  -0.31036  -0.30858  -0.30657  -0.30638
 Alpha  occ. eigenvalues --   -0.30579  -0.30485  -0.30270  -0.30032  -0.29505
 Alpha  occ. eigenvalues --   -0.29423  -0.29025  -0.28384  -0.28301  -0.28197
 Alpha  occ. eigenvalues --   -0.27561  -0.27172  -0.27042  -0.26789  -0.26588
 Alpha  occ. eigenvalues --   -0.26517  -0.25810  -0.25219  -0.24820  -0.24598
 Alpha  occ. eigenvalues --   -0.24546  -0.24360  -0.24290  -0.24224  -0.24134
 Alpha  occ. eigenvalues --   -0.23865  -0.23719  -0.23545  -0.23434  -0.23195
 Alpha  occ. eigenvalues --   -0.23076  -0.22988  -0.22027  -0.21719  -0.21239
 Alpha  occ. eigenvalues --   -0.21022
 Alpha virt. eigenvalues --   -0.13208  -0.12363  -0.07752  -0.07266  -0.06796
 Alpha virt. eigenvalues --   -0.06516  -0.06418  -0.06315  -0.06233  -0.05824
 Alpha virt. eigenvalues --   -0.05565  -0.05299  -0.05163  -0.04915  -0.04361

 Mulliken atomic charges:
              1
     1  Pt   0.221556
     2  Cl  -0.380620
     3  Cl  -0.392519
     4  Cl  -0.294722
     5  P    1.117262
     6  Pt   0.222455
     7  Sn   0.311839
     8  Cl  -0.174830
     9  Cl  -0.145800
    10  Cl  -0.161649
    11  P    1.021148
    12  C   -0.802844
    13  C    0.317638
    14  C    0.702723
    15  C   -0.310858
    16  H    0.105373
    17  C   -0.367056
    18  H    0.086510
    19  C   -0.132506
    20  H    0.104466
    21  H    0.100146
    22  C   -0.809037
    23  C    0.206099
    24  C    0.618632
    25  C   -0.292437
    26  H    0.099300
    27  C   -0.269914
    28  H    0.074590
    29  C   -0.199310
    30  H    0.103121
    31  H    0.099012
    32  C   -0.888449
    33  C    0.422366
    34  C    0.477400
    35  C   -0.175642
    36  H    0.106790
    37  C   -0.546039
    38  H    0.096105
    39  C   -0.160977
    40  H    0.105793
    41  H    0.102201
    42  C   -1.052029
    43  C    0.607108
    44  C    0.380176
    45  C   -0.234826
    46  H    0.084743
    47  C   -0.395525
    48  H    0.101424
    49  C   -0.101907
    50  H    0.102302
    51  H    0.100662
    52  C   -0.683152
    53  C    0.210443
    54  C    0.642372
    55  C   -0.295712
    56  H    0.075205
    57  C   -0.301291
    58  H    0.073570
    59  C   -0.198619
    60  H    0.105418
    61  H    0.098324
    62  C   -0.807711
    63  C    0.478793
    64  C    0.466418
    65  C   -0.410742
    66  H    0.099400
    67  C   -0.290769
    68  H    0.082000
    69  C   -0.192899
    70  H    0.103802
    71  H    0.100905
    72  C   -0.324605
    73  H    0.144060
    74  H    0.153768
    75  H    0.150653
    76  C   -0.304786
    77  H    0.148350
    78  H    0.151102
    79  H    0.138966
    80  C   -0.343007
    81  H    0.147249
    82  H    0.156838
    83  H    0.146482
    84  C   -0.334645
    85  H    0.151283
    86  H    0.155879
    87  H    0.143321
    88  C   -0.340793
    89  H    0.156024
    90  H    0.152344
    91  H    0.142578
    92  C   -0.291755
    93  H    0.152838
    94  H    0.146910
    95  H    0.135750
 Sum of Mulliken atomic charges =   0.00000

 Dipole moment (field-independent basis, Debye):
    X=             -0.8306    Y=              3.8478    Z=              1.4306  Tot=              4.1883
 Quadrupole moment (field-independent basis, Debye-Ang):
   XX=           -319.5938   YY=           -447.7065   ZZ=           -373.4395
   XY=             51.7856   XZ=              1.0002   YZ=             -4.0732

 Normal termination of Gaussian 09 at Sat Jun 15 09:54:33 2019.
