 Gaussian 09, Revision D.01,
 Gaussian 09:  EM64L-G09RevD.01 24-Apr-2013

 ----------------------------------------------------------------------
 #PBEPBE/gen scf=(maxcycle=1000,conver=4) NMR=GIAO Scrf=(solvent=Dichlo
 romethane)
 ----------------------------------------------------------------------

 -----------
 estrutura 9
 -----------
 Symbolic Z-matrix:
 Charge =  0 Multiplicity = 1

                         Standard orientation:
 ---------------------------------------------------------------------
 Center     Atomic      Atomic             Coordinates (Angstroms)
 Number     Number       Type             X           Y           Z
 ---------------------------------------------------------------------
      1         78           0       -0.029425   -0.032324    0.096110
      2         50           0       -2.601989   -0.180555   -0.430595
      3         50           0        2.570475    0.093753   -0.410053
      4         17           0        3.490367   -1.752737   -1.697983
      5         17           0        4.138075    0.190674    1.436957
      6         17           0        3.456617    1.892807   -1.769912
      7         17           0       -3.485574   -2.192997   -1.459291
      8         17           0       -3.320847    1.421698   -2.101314
      9         17           0       -4.267354    0.147901    1.295955
     10         33           0        0.127893   -2.508311    0.397225
     11         33           0       -0.147533    2.461082    0.353693
     12          6           0        1.776375   -3.051348    1.357981
     13          1           0        2.559990   -3.057812    0.586407
     14          1           0        2.009901   -2.224516    2.044832
     15          6           0        0.074345   -3.529395   -1.285475
     16          1           0       -0.877448   -3.234515   -1.751269
     17          1           0        0.888444   -3.102787   -1.890401
     18          6           0       -1.327874   -3.226912    1.516718
     19          1           0       -2.235600   -3.190388    0.896509
     20          1           0       -1.097669   -4.290108    1.682069
     21          6           0       -1.902652    3.183379    0.919369
     22          1           0       -2.621450    2.746122    0.213405
     23          1           0       -2.111431    2.751172    1.909553
     24          6           0        0.328486    3.554584   -1.230469
     25          1           0       -0.636785    3.777736   -1.717819
     26          1           0        0.883501    2.878392   -1.894786
     27          6           0        1.113079    2.841854    1.840663
     28          1           0        2.122103    2.808708    1.400369
     29          1           0        1.022529    1.946937    2.475769
     30          6           0        1.733814   -4.380049    2.111837
     31          1           0        1.513278   -5.233483    1.454919
     32          1           0        2.718664   -4.564778    2.570329
     33          1           0        0.993670   -4.375704    2.924855
     34          6           0       -1.514378   -2.484596    2.839704
     35          1           0       -2.338483   -2.937992    3.412894
     36          1           0       -0.612687   -2.522520    3.470365
     37          1           0       -1.768569   -1.425772    2.679674
     38          6           0        0.194412   -5.049369   -1.179442
     39          1           0       -0.586916   -5.489221   -0.540688
     40          1           0        0.084568   -5.494872   -2.180982
     41          1           0        1.174862   -5.362551   -0.791447
     42          6           0       -2.059202    4.704710    0.908730
     43          1           0       -3.096750    4.961676    1.174852
     44          1           0       -1.400972    5.210547    1.626001
     45          1           0       -1.868473    5.127560   -0.088120
     46          6           0        1.143467    4.822599   -0.957203
     47          1           0        1.376477    5.323462   -1.909426
     48          1           0        0.608551    5.546643   -0.326342
     49          1           0        2.102927    4.581666   -0.475459
     50          6           0        0.919091    4.106875    2.674608
     51          1           0        1.659571    4.116100    3.493539
     52          1           0        1.065235    5.026019    2.086871
     53          1           0       -0.077670    4.145312    3.141877
 ---------------------------------------------------------------------

 SCF Done:  E(RPBE-PBE) =  -36768.1747707     A.U. after    8 cycles

      1  Pt   Isotropic =  3608.4134   Anisotropy =  1149.7440

      2  Sn   Isotropic =  2103.7290   Anisotropy =   750.6789

      3  Sn   Isotropic =  2106.3545   Anisotropy =   744.9044

      4  Cl   Isotropic =   721.7027   Anisotropy =   332.9878

      5  Cl   Isotropic =   739.8344   Anisotropy =   339.0395

      6  Cl   Isotropic =   746.4089   Anisotropy =   307.7988

      7  Cl   Isotropic =   737.3620   Anisotropy =   313.9078

      8  Cl   Isotropic =   734.1434   Anisotropy =   346.8736

      9  Cl   Isotropic =   731.3724   Anisotropy =   356.4080

     10  As   Isotropic =  1012.2558   Anisotropy =   161.3438

     11  As   Isotropic =  1019.4422   Anisotropy =   141.9742

     12  C    Isotropic =   148.8181   Anisotropy =    43.6986

     13  H    Isotropic =    28.1731   Anisotropy =     8.4575

     14  H    Isotropic =    29.0767   Anisotropy =     6.5580

     15  C    Isotropic =   148.6420   Anisotropy =    37.7934

     16  H    Isotropic =    28.6518   Anisotropy =     7.7275

     17  H    Isotropic =    28.7658   Anisotropy =     6.2958

     18  C    Isotropic =   158.0536   Anisotropy =    22.5635

     19  H    Isotropic =    29.1785   Anisotropy =     8.2745

     20  H    Isotropic =    28.9619   Anisotropy =    10.6001

     21  C    Isotropic =   143.9046   Anisotropy =    36.2595

     22  H    Isotropic =    28.2584   Anisotropy =    12.9517

     23  H    Isotropic =    28.7477   Anisotropy =     6.4812

     24  C    Isotropic =   151.5231   Anisotropy =    35.2900

     25  H    Isotropic =    28.8919   Anisotropy =     8.0379

     26  H    Isotropic =    28.4039   Anisotropy =     5.2510

     27  C    Isotropic =   147.9391   Anisotropy =    42.9200

     28  H    Isotropic =    28.8358   Anisotropy =     6.9416

     29  H    Isotropic =    29.0790   Anisotropy =     9.2667

     30  C    Isotropic =   170.0071   Anisotropy =    26.4456

     31  H    Isotropic =    30.2398   Anisotropy =     9.1906

     32  H    Isotropic =    29.9750   Anisotropy =    13.6138

     33  H    Isotropic =    30.1933   Anisotropy =     9.0324

     34  C    Isotropic =   173.3792   Anisotropy =    18.6992

     35  H    Isotropic =    30.1584   Anisotropy =    13.4702

     36  H    Isotropic =    30.5722   Anisotropy =     8.9423

     37  H    Isotropic =    29.9870   Anisotropy =     7.5806

     38  C    Isotropic =   170.9324   Anisotropy =    23.3135

     39  H    Isotropic =    30.2936   Anisotropy =     9.1849

     40  H    Isotropic =    29.9487   Anisotropy =    14.0579

     41  H    Isotropic =    30.2063   Anisotropy =     8.9715

     42  C    Isotropic =   168.6265   Anisotropy =    27.9963

     43  H    Isotropic =    29.7944   Anisotropy =    13.5537

     44  H    Isotropic =    29.9013   Anisotropy =     8.8870

     45  H    Isotropic =    29.6508   Anisotropy =     8.1820

     46  C    Isotropic =   169.3716   Anisotropy =    25.0827

     47  H    Isotropic =    29.8748   Anisotropy =    13.8882

     48  H    Isotropic =    30.0116   Anisotropy =     9.2688

     49  H    Isotropic =    29.6538   Anisotropy =     6.0288

     50  C    Isotropic =   167.0127   Anisotropy =    25.4172

     51  H    Isotropic =    29.8125   Anisotropy =    13.2804

     52  H    Isotropic =    29.9199   Anisotropy =     9.1959

     53  H    Isotropic =    29.7085   Anisotropy =     8.9607

 The electronic state is 1-A.
 Alpha  occ. eigenvalues -- ******************************-427.55533-422.29484
 Alpha  occ. eigenvalues -- -422.28981-414.88569-414.88513-414.88271-149.66868
 Alpha  occ. eigenvalues -- -149.66851-141.94678-141.94674-141.94662-141.94659
 Alpha  occ. eigenvalues -- -141.94611-141.94594-100.56787-100.56756-100.56692
 Alpha  occ. eigenvalues -- -100.56654-100.56611-100.56577 -99.93586 -92.09422
 Alpha  occ. eigenvalues --  -92.09343 -92.08965 -79.05302 -79.05209 -79.04993
 Alpha  occ. eigenvalues --  -79.04958 -79.04892 -53.01165 -53.00704 -47.60428
 Alpha  occ. eigenvalues --  -47.60421 -47.60373 -47.59958 -47.59949 -47.59908
 Alpha  occ. eigenvalues --  -28.83260 -28.83228 -25.17886 -25.17878 -25.17854
 Alpha  occ. eigenvalues --  -25.17849 -25.17675 -25.17642 -20.85032 -17.72776
 Alpha  occ. eigenvalues --  -17.72775 -17.72747 -17.72747 -17.72638 -17.72634
 Alpha  occ. eigenvalues --  -17.72607 -17.72605 -17.72594 -17.72563 -17.41831
 Alpha  occ. eigenvalues --  -17.41682 -17.40893 -11.60193 -11.59863 -11.59406
 Alpha  occ. eigenvalues --  -11.59354 -11.59203  -9.92260  -9.91813  -9.91797
 Alpha  occ. eigenvalues --   -9.91788  -9.91586  -9.91306  -9.89668  -9.89665
 Alpha  occ. eigenvalues --   -9.89519  -9.89398  -9.89323  -9.89306  -9.14646
 Alpha  occ. eigenvalues --   -9.14611  -9.14547  -9.14516  -9.14473  -9.14435
 Alpha  occ. eigenvalues --   -6.98437  -6.98404  -6.98341  -6.98308  -6.98259
 Alpha  occ. eigenvalues --   -6.98220  -6.97833  -6.97827  -6.97802  -6.97786
 Alpha  occ. eigenvalues --   -6.97737  -6.97723  -6.97704  -6.97691  -6.97666
 Alpha  occ. eigenvalues --   -6.97652  -6.97629  -6.97613  -6.73261  -6.72891
 Alpha  occ. eigenvalues --   -4.86074  -4.86052  -4.85911  -4.85701  -4.85675
 Alpha  occ. eigenvalues --   -4.85556  -4.51991  -4.51935  -3.25419  -3.25396
 Alpha  occ. eigenvalues --   -3.25363  -3.25344  -3.25064  -3.24999  -3.15077
 Alpha  occ. eigenvalues --   -3.15054  -3.14607  -3.14374  -3.14198  -3.14151
 Alpha  occ. eigenvalues --   -3.14086  -2.87985  -1.82974  -1.82759  -1.80441
 Alpha  occ. eigenvalues --   -1.53904  -1.53901  -1.53758  -1.53742  -1.53727
 Alpha  occ. eigenvalues --   -1.53542  -1.53529  -1.53410  -1.53385  -1.53377
 Alpha  occ. eigenvalues --   -1.04492  -1.04477  -1.04429  -1.04407  -1.04115
 Alpha  occ. eigenvalues --   -1.04081  -1.04055  -1.04046  -1.04007  -1.03957
 Alpha  occ. eigenvalues --   -0.73566  -0.73393  -0.73086  -0.72941  -0.71795
 Alpha  occ. eigenvalues --   -0.71758  -0.71656  -0.71646  -0.69893  -0.69866
 Alpha  occ. eigenvalues --   -0.69661  -0.69562  -0.61697  -0.61347  -0.57164
 Alpha  occ. eigenvalues --   -0.56989  -0.56642  -0.56458  -0.50272  -0.49695
 Alpha  occ. eigenvalues --   -0.44075  -0.43132  -0.42733  -0.42537  -0.42297
 Alpha  occ. eigenvalues --   -0.42171  -0.41110  -0.40817  -0.38986  -0.38759
 Alpha  occ. eigenvalues --   -0.38180  -0.37795  -0.37664  -0.37635  -0.36207
 Alpha  occ. eigenvalues --   -0.35789  -0.35532  -0.35166  -0.35055  -0.35018
 Alpha  occ. eigenvalues --   -0.34034  -0.33768  -0.33738  -0.33493  -0.33376
 Alpha  occ. eigenvalues --   -0.33161  -0.32875  -0.32678  -0.32383  -0.32264
 Alpha  occ. eigenvalues --   -0.31963  -0.31632  -0.30831  -0.30280  -0.29478
 Alpha  occ. eigenvalues --   -0.28767  -0.28673  -0.28650  -0.28544  -0.28471
 Alpha  occ. eigenvalues --   -0.28208  -0.28047  -0.27928  -0.27569  -0.27353
 Alpha  occ. eigenvalues --   -0.27274  -0.27140  -0.26949  -0.26818  -0.26607
 Alpha  occ. eigenvalues --   -0.26513  -0.23855  -0.23704  -0.22267
 Alpha virt. eigenvalues --   -0.13100  -0.08419  -0.05451  -0.05243  -0.04881
 Alpha virt. eigenvalues --   -0.03747  -0.03516  -0.02809  -0.02188  -0.01100
 Alpha virt. eigenvalues --   -0.00781  -0.00632  -0.00424  -0.00223   0.00147

 Mulliken charges:
               1
     1  Pt  -0.115868
     2  Sn   0.331398
     3  Sn   0.312026
     4  Cl  -0.223232
     5  Cl  -0.261113
     6  Cl  -0.192225
     7  Cl  -0.193985
     8  Cl  -0.224403
     9  Cl  -0.236716
    10  As   0.193269
    11  As   0.079535
    12  C   -0.394181
    13  H    0.133134
    14  H    0.124710
    15  C   -0.334249
    16  H    0.136261
    17  H    0.141653
    18  C   -0.512774
    19  H    0.149609
    20  H    0.154310
    21  C   -0.372158
    22  H    0.125116
    23  H    0.134464
    24  C   -0.429603
    25  H    0.146666
    26  H    0.129823
    27  C   -0.386286
    28  H    0.133258
    29  H    0.133032
    30  C   -0.134155
    31  H    0.114547
    32  H    0.138106
    33  H    0.110191
    34  C   -0.059195
    35  H    0.137881
    36  H    0.106906
    37  H    0.068863
    38  C   -0.174171
    39  H    0.114776
    40  H    0.146229
    41  H    0.112943
    42  C   -0.164361
    43  H    0.140043
    44  H    0.113039
    45  H    0.111823
    46  C   -0.112596
    47  H    0.135174
    48  H    0.116741
    49  H    0.108112
    50  C   -0.192323
    51  H    0.145404
    52  H    0.116903
    53  H    0.117647
 Sum of Mulliken charges =   0.00000

 Dipole moment (field-independent basis, Debye):
    X=             -0.1282    Y=              0.3154    Z=              7.0208  Tot=              7.0291
 Quadrupole moment (field-independent basis, Debye-Ang):
   XX=           -351.0444   YY=           -230.3737   ZZ=           -279.5480
   XY=             -6.3651   XZ=             -0.5821   YZ=             -0.5435

 Normal termination of Gaussian 09 at Fri Sep  7 21:03:37 2018.
