 Gaussian 09, Revision A.02,
 Gaussian 09:  EM64L-G09RevA.02 11-Jun-2009

 ----------------------------------------------------------------------
 #PBEPBE/gen scf=(maxcycle=500,conver=4) NMR=GIAO Scrf=(solvent=Dichlor
 omethane)
 ----------------------------------------------------------------------

 ------------
 estrutura 46
 ------------
 Symbolic Z-matrix:
 Charge =  0 Multiplicity = 1

                         Standard orientation:
 ---------------------------------------------------------------------
 Center     Atomic      Atomic             Coordinates (Angstroms)
 Number     Number       Type             X           Y           Z
 ---------------------------------------------------------------------
      1         78           0        1.792951   -0.312169   -0.347641
      2         17           0        0.256411    1.577508   -0.971096
      3         17           0       -0.262889   -1.692548   -0.703731
      4         50           0        2.996454   -2.528228    0.195569
      5         17           0        2.635180   -4.200785   -1.490106
      6         17           0        2.231081   -3.634577    2.184433
      7         17           0        5.375753   -2.706419    0.452772
      8         78           0       -1.810026    0.271395   -0.398654
      9         50           0       -2.916867    2.540938    0.141621
     10         17           0       -2.658558    4.198434   -1.577842
     11         17           0       -1.920611    3.611065    2.046352
     12         17           0       -5.246700    2.821794    0.651521
     13         15           0        3.683001    0.947438   -0.059826
     14         15           0       -3.709540   -0.944780   -0.013681
     15          6           0        4.394574    0.681185    1.611111
     16          6           0        5.772826    0.647130    1.880389
     17          6           0        3.495545    0.544908    2.684001
     18          6           0        6.232402    0.502366    3.188945
     19          1           0        6.499908    0.713658    1.072172
     20          6           0        3.966189    0.408083    3.991485
     21          1           0        2.417919    0.535254    2.499128
     22          6           0        5.341965    0.391435    4.270977
     23          1           0        7.310295    0.469757    3.372122
     24          1           0        3.246925    0.305992    4.808510
     25          6           0        4.919435    0.640043   -1.380502
     26          6           0        6.132527    1.354743   -1.430728
     27          6           0        4.620595   -0.243158   -2.432225
     28          6           0        7.030480    1.151259   -2.478725
     29          1           0        6.381694    2.095780   -0.666823
     30          6           0        5.514519   -0.421316   -3.490688
     31          1           0        3.671781   -0.781790   -2.440050
     32          6           0        6.740648    0.262370   -3.529976
     33          1           0        7.971235    1.708737   -2.489072
     34          1           0        5.245407   -1.102301   -4.303863
     35          6           0        3.368860    2.751499   -0.181030
     36          6           0        3.211945    3.330810   -1.453496
     37          6           0        3.259168    3.570493    0.953155
     38          6           0        2.963905    4.695681   -1.581109
     39          1           0        3.285986    2.715969   -2.353218
     40          6           0        3.009170    4.937683    0.813204
     41          1           0        3.374199    3.151420    1.953881
     42          6           0        2.861070    5.527252   -0.451870
     43          1           0        2.846278    5.125097   -2.579752
     44          1           0        2.930655    5.558212    1.710005
     45          6           0       -4.258697   -0.769300    1.723482
     46          6           0       -5.562274   -0.419967    2.102988
     47          6           0       -3.292673   -0.975575    2.728309
     48          6           0       -5.893681   -0.299831    3.455504
     49          1           0       -6.325460   -0.216600    1.351076
     50          6           0       -3.636764   -0.862158    4.073911
     51          1           0       -2.261741   -1.219028    2.458615
     52          6           0       -4.945690   -0.525487    4.464851
     53          1           0       -6.913829   -0.015361    3.728280
     54          1           0       -2.871445   -1.029919    4.836032
     55          6           0       -3.453047   -2.740718   -0.297838
     56          6           0       -3.108257   -3.163800   -1.593922
     57          6           0       -3.616493   -3.704898    0.708305
     58          6           0       -2.925364   -4.516969   -1.869957
     59          1           0       -2.973160   -2.434369   -2.395243
     60          6           0       -3.434277   -5.059029    0.419361
     61          1           0       -3.890325   -3.408846    1.722218
     62          6           0       -3.084815   -5.491435   -0.870403
     63          1           0       -2.648901   -4.822929   -2.882760
     64          1           0       -3.567273   -5.793829    1.217647
     65          6           0       -5.076148   -0.549575   -1.171675
     66          6           0       -6.307107   -1.230040   -1.073499
     67          6           0       -4.885028    0.338851   -2.239760
     68          6           0       -7.322762   -0.985497   -1.996692
     69          1           0       -6.478292   -1.963399   -0.280748
     70          6           0       -5.904076    0.564383   -3.168482
     71          1           0       -3.928860    0.848564   -2.367572
     72          6           0       -7.143968   -0.084342   -3.060677
     73          1           0       -8.273100   -1.518565   -1.895163
     74          1           0       -5.723746    1.256229   -3.997763
     75          6           0        7.717176    0.053475   -4.658623
     76          1           0        8.310020    0.961493   -4.847995
     77          1           0        8.427027   -0.756679   -4.415301
     78          1           0        7.204327   -0.229818   -5.590714
     79          6           0        5.856778    0.263078    5.681589
     80          1           0        6.645610   -0.502296    5.750715
     81          1           0        6.301474    1.213564    6.022936
     82          1           0        5.054059   -0.002594    6.383955
     83          6           0       -5.314699   -0.423444    5.923102
     84          1           0       -6.244548    0.147658    6.064256
     85          1           0       -5.472529   -1.427537    6.357841
     86          1           0       -4.515093    0.058410    6.507595
     87          6           0       -8.252255    0.187072   -4.044888
     88          1           0       -8.847187   -0.717294   -4.238395
     89          1           0       -8.943404    0.953348   -3.653257
     90          1           0       -7.859796    0.559817   -5.001869
     91          6           0       -2.906153   -6.956558   -1.174423
     92          1           0       -3.884458   -7.449478   -1.311543
     93          1           0       -2.325687   -7.108818   -2.095522
     94          1           0       -2.394616   -7.478644   -0.349739
     95          6           0        2.627177    7.008472   -0.600962
     96          1           0        3.582343    7.539028   -0.757848
     97          1           0        1.988496    7.229740   -1.469300
     98          1           0        2.157686    7.436313    0.296401
 ---------------------------------------------------------------------

 SCF Done:  E(RPBE-PBE) =  -52169.3194732     A.U. after   19 cycles

  1  Pt   Isotropic =  2581.8178   Anisotropy =  2967.4019

  2  Cl   Isotropic =   973.4517   Anisotropy =   451.0960

  3  Cl   Isotropic =   956.5473   Anisotropy =   408.8249

  4  Sn   Isotropic =  2105.1452   Anisotropy =   738.1789

  5  Cl   Isotropic =   762.2377   Anisotropy =   324.1853

  6  Cl   Isotropic =   764.6449   Anisotropy =   343.2125

  7  Cl   Isotropic =   767.6370   Anisotropy =   282.2737

  8  Pt   Isotropic =  2582.1111   Anisotropy =  3130.1078

  9  Sn   Isotropic =  2101.8387   Anisotropy =   742.3205

 10  Cl   Isotropic =   765.5491   Anisotropy =   329.1549

 11  Cl   Isotropic =   755.5261   Anisotropy =   349.8637

 12  Cl   Isotropic =   769.6411   Anisotropy =   269.0959

 13  P    Isotropic =   224.1484   Anisotropy =   141.4169

 14  P    Isotropic =   223.1425   Anisotropy =   148.3367

 15  C    Isotropic =    44.4264   Anisotropy =   158.9001

 16  C    Isotropic =    49.8578   Anisotropy =   184.5429

 17  C    Isotropic =    42.1528   Anisotropy =   179.9423

 18  C    Isotropic =    48.1056   Anisotropy =   163.5653

 19  H    Isotropic =    23.5557   Anisotropy =    10.9681

 20  C    Isotropic =    46.7071   Anisotropy =   154.9646

 21  H    Isotropic =    22.7327   Anisotropy =    12.3009

 22  C    Isotropic =    32.3060   Anisotropy =   204.1331

 23  H    Isotropic =    23.8429   Anisotropy =     7.3211

 24  H    Isotropic =    23.5239   Anisotropy =     9.5288

 25  C    Isotropic =    44.0599   Anisotropy =   147.9037

 26  C    Isotropic =    42.4312   Anisotropy =   173.9734

 27  C    Isotropic =    37.5848   Anisotropy =   170.9696

 28  C    Isotropic =    45.3827   Anisotropy =   157.1048

 29  H    Isotropic =    23.7439   Anisotropy =    12.2017

 30  C    Isotropic =    44.6893   Anisotropy =   151.7566

 31  H    Isotropic =    22.7217   Anisotropy =    15.9768

 32  C    Isotropic =    30.5328   Anisotropy =   206.3119

 33  H    Isotropic =    23.8613   Anisotropy =     7.0984

 34  H    Isotropic =    23.6321   Anisotropy =    10.6329

 35  C    Isotropic =    39.2568   Anisotropy =   174.3690

 36  C    Isotropic =    42.6193   Anisotropy =   194.7150

 37  C    Isotropic =    49.7746   Anisotropy =   183.9777

 38  C    Isotropic =    47.4145   Anisotropy =   168.4650

 39  H    Isotropic =    24.6053   Anisotropy =    11.2780

 40  C    Isotropic =    50.3901   Anisotropy =   157.0163

 41  H    Isotropic =    24.5530   Anisotropy =    12.2309

 42  C    Isotropic =    26.3282   Anisotropy =   204.6355

 43  H    Isotropic =    23.9492   Anisotropy =     7.5562

 44  H    Isotropic =    24.1199   Anisotropy =     7.6087

 45  C    Isotropic =    51.1627   Anisotropy =   165.0074

 46  C    Isotropic =    48.3494   Anisotropy =   186.9465

 47  C    Isotropic =    42.0801   Anisotropy =   181.2793

 48  C    Isotropic =    49.2056   Anisotropy =   160.2050

 49  H    Isotropic =    23.6537   Anisotropy =    10.6416

 50  C    Isotropic =    47.4165   Anisotropy =   164.3596

 51  H    Isotropic =    23.1864   Anisotropy =    11.0258

 52  C    Isotropic =    31.8097   Anisotropy =   197.4615

 53  H    Isotropic =    23.7170   Anisotropy =     7.7730

 54  H    Isotropic =    23.5784   Anisotropy =     9.5335

 55  C    Isotropic =    41.5361   Anisotropy =   168.0926

 56  C    Isotropic =    43.2845   Anisotropy =   190.1447

 57  C    Isotropic =    48.0734   Anisotropy =   184.8117

 58  C    Isotropic =    48.8788   Anisotropy =   161.9043

 59  H    Isotropic =    24.1938   Anisotropy =    11.4633

 60  C    Isotropic =    48.2644   Anisotropy =   162.3721

 61  H    Isotropic =    24.3794   Anisotropy =    12.3815

 62  C    Isotropic =    34.4740   Anisotropy =   199.0276

 63  H    Isotropic =    24.0701   Anisotropy =     8.0961

 64  H    Isotropic =    23.9683   Anisotropy =     7.7663

 65  C    Isotropic =    47.4837   Anisotropy =   165.8240

 66  C    Isotropic =    45.2761   Anisotropy =   181.9872

 67  C    Isotropic =    39.7008   Anisotropy =   168.3781

 68  C    Isotropic =    48.9779   Anisotropy =   161.7814

 69  H    Isotropic =    23.9630   Anisotropy =    12.6268

 70  C    Isotropic =    47.4965   Anisotropy =   160.4758

 71  H    Isotropic =    23.0397   Anisotropy =    15.2062

 72  C    Isotropic =    30.2715   Anisotropy =   192.7777

 73  H    Isotropic =    23.8661   Anisotropy =     7.5677

 74  H    Isotropic =    23.6649   Anisotropy =    10.6855

 75  C    Isotropic =   158.0860   Anisotropy =    45.6517

 76  H    Isotropic =    29.1389   Anisotropy =     8.5307

 77  H    Isotropic =    28.7329   Anisotropy =     9.0945

 78  H    Isotropic =    28.9656   Anisotropy =     7.5779

 79  C    Isotropic =   160.0989   Anisotropy =    44.1283

 80  H    Isotropic =    28.8239   Anisotropy =     8.4681

 81  H    Isotropic =    28.7458   Anisotropy =     9.7886

 82  H    Isotropic =    29.1212   Anisotropy =     6.9295

 83  C    Isotropic =   159.3283   Anisotropy =    44.5860

 84  H    Isotropic =    28.8760   Anisotropy =     8.4972

 85  H    Isotropic =    28.5417   Anisotropy =     9.8592

 86  H    Isotropic =    28.7602   Anisotropy =     7.1828

 87  C    Isotropic =   160.9551   Anisotropy =    43.6525

 88  H    Isotropic =    28.9360   Anisotropy =     9.1046

 89  H    Isotropic =    28.6878   Anisotropy =     9.2963

 90  H    Isotropic =    29.0828   Anisotropy =     7.3706

 91  C    Isotropic =   160.4794   Anisotropy =    42.9235

 92  H    Isotropic =    28.8695   Anisotropy =    10.5153

 93  H    Isotropic =    29.1828   Anisotropy =     6.9941

 94  H    Isotropic =    28.9597   Anisotropy =     7.3511

 95  C    Isotropic =   160.4785   Anisotropy =    42.3859

 96  H    Isotropic =    28.9237   Anisotropy =    10.5983

 97  H    Isotropic =    29.0469   Anisotropy =     7.0482

 98  H    Isotropic =    29.1762   Anisotropy =     7.1802

 The electronic state is 1-A.
 Alpha  occ. eigenvalues -- ****************************************-427.54673
 Alpha  occ. eigenvalues -- -427.54645-414.87744-414.87712-414.87665-414.87639
 Alpha  occ. eigenvalues -- -414.87387-414.87362-149.66881-149.66845-141.94690
 Alpha  occ. eigenvalues -- -141.94684-141.94653-141.94649-141.94623-141.94586
 Alpha  occ. eigenvalues -- -100.56773-100.56735-100.56641-100.56574-100.56570
 Alpha  occ. eigenvalues -- -100.56529-100.56458-100.56444 -99.92737 -99.92710
 Alpha  occ. eigenvalues --  -92.08642 -92.08605 -92.08486 -92.08464 -92.08056
 Alpha  occ. eigenvalues --  -92.08035 -79.04509 -79.04477 -79.04379 -79.04348
 Alpha  occ. eigenvalues --  -79.04142 -79.04112 -79.04055 -79.04034 -79.03997
 Alpha  occ. eigenvalues --  -79.03975 -76.33521 -76.33464 -28.83290 -28.83256
 Alpha  occ. eigenvalues --  -25.17922 -25.17904 -25.17886 -25.17871 -25.17704
 Alpha  occ. eigenvalues --  -25.17669 -20.84205 -20.84180 -17.72804 -17.72803
 Alpha  occ. eigenvalues --  -17.72769 -17.72769 -17.72668 -17.72658 -17.72632
 Alpha  occ. eigenvalues --  -17.72623 -17.72619 -17.72584 -17.41144 -17.41098
 Alpha  occ. eigenvalues --  -17.40842 -17.40825 -17.39939 -17.39925 -11.59529
 Alpha  occ. eigenvalues --  -11.59494 -11.59069 -11.59034 -11.58585 -11.58554
 Alpha  occ. eigenvalues --  -11.58408 -11.58396 -11.58285 -11.58271  -9.92838
 Alpha  occ. eigenvalues --   -9.92804  -9.92720  -9.92694  -9.92537  -9.92524
 Alpha  occ. eigenvalues --   -9.92182  -9.92132  -9.91985  -9.91985  -9.91828
 Alpha  occ. eigenvalues --   -9.91821  -9.91612  -9.91574  -9.91430  -9.91424
 Alpha  occ. eigenvalues --   -9.91416  -9.91388  -9.91266  -9.91262  -9.91172
 Alpha  occ. eigenvalues --   -9.91155  -9.91139  -9.91105  -9.90690  -9.90679
 Alpha  occ. eigenvalues --   -9.90586  -9.90571  -9.90543  -9.90529  -9.90477
 Alpha  occ. eigenvalues --   -9.90459  -9.90329  -9.90323  -9.90320  -9.90312
 Alpha  occ. eigenvalues --   -9.89150  -9.89106  -9.89092  -9.89045  -9.88941
 Alpha  occ. eigenvalues --   -9.88915  -9.14625  -9.14589  -9.14497  -9.14434
 Alpha  occ. eigenvalues --   -9.14432  -9.14392  -9.14262  -9.14243  -6.98446
 Alpha  occ. eigenvalues --   -6.98409  -6.98315  -6.98254  -6.98249  -6.98213
 Alpha  occ. eigenvalues --   -6.97868  -6.97843  -6.97797  -6.97788  -6.97763
 Alpha  occ. eigenvalues --   -6.97751  -6.97705  -6.97698  -6.97674  -6.97657
 Alpha  occ. eigenvalues --   -6.97610  -6.97604  -6.97597  -6.97592  -6.97564
 Alpha  occ. eigenvalues --   -6.97553  -6.97384  -6.97361  -6.36405  -6.36340
 Alpha  occ. eigenvalues --   -4.58911  -4.58896  -4.58850  -4.58831  -4.58758
 Alpha  occ. eigenvalues --   -4.58692  -4.52054  -4.52023  -3.25490  -3.25459
 Alpha  occ. eigenvalues --   -3.25458  -3.25429  -3.25134  -3.25103  -3.14389
 Alpha  occ. eigenvalues --   -3.14351  -3.14348  -3.14314  -3.13829  -3.13801
 Alpha  occ. eigenvalues --   -3.13499  -3.13471  -3.13346  -3.13320  -3.13193
 Alpha  occ. eigenvalues --   -3.13184  -3.13152  -3.13140  -2.87211  -2.87192
 Alpha  occ. eigenvalues --   -1.82541  -1.82490  -1.81981  -1.81964  -1.79380
 Alpha  occ. eigenvalues --   -1.79376  -1.04597  -1.04579  -1.04568  -1.04553
 Alpha  occ. eigenvalues --   -1.04195  -1.04163  -1.04155  -1.04127  -1.04120
 Alpha  occ. eigenvalues --   -1.04094  -0.80497  -0.80460  -0.79711  -0.79704
 Alpha  occ. eigenvalues --   -0.79523  -0.79494  -0.73774  -0.73718  -0.73419
 Alpha  occ. eigenvalues --   -0.73396  -0.72189  -0.71739  -0.71736  -0.71656
 Alpha  occ. eigenvalues --   -0.71586  -0.71491  -0.71481  -0.71446  -0.71193
 Alpha  occ. eigenvalues --   -0.71115  -0.69235  -0.69227  -0.68998  -0.68985
 Alpha  occ. eigenvalues --   -0.68839  -0.68825  -0.66010  -0.65981  -0.62915
 Alpha  occ. eigenvalues --   -0.62900  -0.62657  -0.62640  -0.58365  -0.58350
 Alpha  occ. eigenvalues --   -0.56648  -0.56618  -0.56268  -0.56135  -0.55876
 Alpha  occ. eigenvalues --   -0.55809  -0.53828  -0.53825  -0.53695  -0.53694
 Alpha  occ. eigenvalues --   -0.52156  -0.52144  -0.46943  -0.46936  -0.46786
 Alpha  occ. eigenvalues --   -0.46778  -0.44285  -0.44265  -0.43640  -0.43516
 Alpha  occ. eigenvalues --   -0.43265  -0.43175  -0.43018  -0.42911  -0.42839
 Alpha  occ. eigenvalues --   -0.42779  -0.41420  -0.41316  -0.41091  -0.41053
 Alpha  occ. eigenvalues --   -0.40611  -0.40575  -0.38860  -0.38802  -0.38642
 Alpha  occ. eigenvalues --   -0.38554  -0.38479  -0.38471  -0.38286  -0.38248
 Alpha  occ. eigenvalues --   -0.38148  -0.38085  -0.38048  -0.38041  -0.37690
 Alpha  occ. eigenvalues --   -0.37491  -0.37369  -0.37309  -0.37018  -0.36802
 Alpha  occ. eigenvalues --   -0.35609  -0.35347  -0.35019  -0.34658  -0.34582
 Alpha  occ. eigenvalues --   -0.34564  -0.34549  -0.34422  -0.34290  -0.33988
 Alpha  occ. eigenvalues --   -0.33928  -0.33795  -0.33464  -0.33393  -0.33257
 Alpha  occ. eigenvalues --   -0.33107  -0.33037  -0.32894  -0.32777  -0.32493
 Alpha  occ. eigenvalues --   -0.31718  -0.31320  -0.31280  -0.31243  -0.31191
 Alpha  occ. eigenvalues --   -0.31086  -0.31004  -0.30760  -0.30677  -0.30553
 Alpha  occ. eigenvalues --   -0.30539  -0.30069  -0.29788  -0.29497  -0.29308
 Alpha  occ. eigenvalues --   -0.28590  -0.28517  -0.28465  -0.28431  -0.28317
 Alpha  occ. eigenvalues --   -0.27738  -0.27494  -0.27315  -0.27221  -0.27145
 Alpha  occ. eigenvalues --   -0.27055  -0.26842  -0.26796  -0.26775  -0.26092
 Alpha  occ. eigenvalues --   -0.25410  -0.24734  -0.24701  -0.24588  -0.24535
 Alpha  occ. eigenvalues --   -0.24447  -0.24358  -0.24212  -0.24109  -0.24002
 Alpha  occ. eigenvalues --   -0.23912  -0.23895  -0.23649  -0.23571  -0.23087
 Alpha  occ. eigenvalues --   -0.22892  -0.21772  -0.21689
 Alpha virt. eigenvalues --   -0.13786  -0.12693  -0.07787  -0.07694  -0.06977
 Alpha virt. eigenvalues --   -0.06812  -0.06562  -0.06465  -0.06353  -0.06217
 Alpha virt. eigenvalues --   -0.05922  -0.05695  -0.05644  -0.05296  -0.04631

 Mulliken atomic charges:
              1
     1  Pt   0.200573
     2  Cl  -0.420011
     3  Cl  -0.353589
     4  Sn   0.320002
     5  Cl  -0.134108
     6  Cl  -0.156973
     7  Cl  -0.139605
     8  Pt   0.175267
     9  Sn   0.325221
    10  Cl  -0.138171
    11  Cl  -0.165654
    12  Cl  -0.143913
    13  P    1.073799
    14  P    1.078472
    15  C   -0.787678
    16  C    0.245281
    17  C    0.630037
    18  C   -0.264723
    19  H    0.078772
    20  C   -0.279532
    21  H    0.073099
    22  C   -0.197830
    23  H    0.103848
    24  H    0.097609
    25  C   -0.788465
    26  C    0.396055
    27  C    0.493305
    28  C   -0.304588
    29  H    0.097969
    30  C   -0.388089
    31  H    0.074432
    32  C   -0.176743
    33  H    0.102046
    34  H    0.099795
    35  C   -1.039474
    36  C    0.613442
    37  C    0.382856
    38  C   -0.224011
    39  H    0.084775
    40  C   -0.384894
    41  H    0.098994
    42  C   -0.141086
    43  H    0.098060
    44  H    0.098477
    45  C   -0.656190
    46  C    0.323619
    47  C    0.537551
    48  C   -0.478207
    49  H    0.098315
    50  C   -0.245118
    51  H    0.076965
    52  C   -0.188917
    53  H    0.097542
    54  H    0.099806
    55  C   -1.033892
    56  C    0.566492
    57  C    0.364726
    58  C   -0.217955
    59  H    0.083679
    60  C   -0.356009
    61  H    0.097374
    62  C   -0.149512
    63  H    0.101371
    64  H    0.101886
    65  C   -0.730433
    66  C    0.316719
    67  C    0.472053
    68  C   -0.210974
    69  H    0.105316
    70  C   -0.449759
    71  H    0.074677
    72  C   -0.167433
    73  H    0.104028
    74  H    0.101039
    75  C   -0.331226
    76  H    0.146515
    77  H    0.154936
    78  H    0.146565
    79  C   -0.306596
    80  H    0.146516
    81  H    0.152912
    82  H    0.138897
    83  C   -0.318093
    84  H    0.139911
    85  H    0.155859
    86  H    0.146598
    87  C   -0.327834
    88  H    0.148027
    89  H    0.153812
    90  H    0.144171
    91  C   -0.317530
    92  H    0.155741
    93  H    0.140630
    94  H    0.145653
    95  C   -0.306944
    96  H    0.156478
    97  H    0.142651
    98  H    0.140547
 Sum of Mulliken atomic charges =   0.00000

 Dipole moment (field-independent basis, Debye):
    X=             -0.4880    Y=              0.1262    Z=             -0.3347  Tot=              0.6050
 Quadrupole moment (field-independent basis, Debye-Ang):
   XX=           -394.6485   YY=           -509.5011   ZZ=           -428.7731
   XY=             89.0990   XZ=             -1.4250   YZ=             -0.4828

 Normal termination of Gaussian 09 at Sat Jun 15 06:30:31 2019.
