 Gaussian 09, Revision A.02,
 Gaussian 09:  EM64L-G09RevA.02 11-Jun-2009

 ----------------------------------------------------------------------
 #PBEPBE/gen scf=(maxcycle=500,conver=4) NMR=GIAO Scrf=(solvent=Dichlor
 omethane)
 ----------------------------------------------------------------------

 ------------
 estrutura 45
 ------------
 Symbolic Z-matrix:
 Charge =  0 Multiplicity = 1

                         Standard orientation:
 ---------------------------------------------------------------------
 Center     Atomic      Atomic             Coordinates (Angstroms)
 Number     Number       Type             X           Y           Z
 ---------------------------------------------------------------------
      1         78           0       -1.677246   -0.452733   -0.457851
      2         17           0        0.421992   -1.606408   -1.163395
      3         17           0       -0.438848    1.552952   -1.358839
      4         50           0       -3.576950    1.192051    0.171183
      5         17           0       -4.975599    1.807815   -1.693899
      6         17           0       -2.895175    3.350892    0.978538
      7         17           0       -5.256856    0.728644    1.842227
      8         15           0       -2.693519   -2.370610    0.284990
      9          6           0       -4.185853   -2.876249   -0.683006
     10          1           0       -4.293551   -3.962108   -0.506753
     11          1           0       -3.898443   -2.751063   -1.739073
     12          6           0       -5.515352   -2.170961   -0.404900
     13          1           0       -5.853903   -2.312121    0.630380
     14          1           0       -5.478680   -1.091414   -0.611682
     15          1           0       -6.285543   -2.592530   -1.070637
     16          6           0       -3.153722   -2.338847    2.067936
     17          1           0       -3.946602   -1.588310    2.191582
     18          1           0       -3.593243   -3.327083    2.289930
     19          6           0       -1.975215   -2.038473    3.003299
     20          1           0       -1.168619   -2.780082    2.915132
     21          1           0       -1.546806   -1.046055    2.792609
     22          1           0       -2.319259   -2.042936    4.050083
     23          6           0       -1.578575   -3.850235    0.161764
     24          1           0       -1.979363   -4.558987    0.904258
     25          1           0       -0.590785   -3.532925    0.520462
     26          6           0       -1.464158   -4.522439   -1.207547
     27          1           0       -0.740355   -5.351949   -1.143192
     28          1           0       -2.423069   -4.945407   -1.543141
     29          1           0       -1.104941   -3.826524   -1.980367
     30         78           0        1.690813    0.449540   -0.513011
     31         50           0        3.461289   -1.224362    0.329328
     32         17           0        3.873435   -3.046372   -1.179380
     33         17           0        2.739314   -2.375999    2.316662
     34         17           0        5.749113   -0.690049    0.892312
     35         15           0        2.817218    2.396495   -0.069040
     36          6           0        3.842234    2.888919   -1.524445
     37          1           0        4.301367    3.863893   -1.279126
     38          1           0        3.111656    3.078898   -2.330705
     39          6           0        4.894214    1.880866   -1.988025
     40          1           0        5.658356    1.687087   -1.221917
     41          1           0        4.435450    0.918958   -2.258965
     42          1           0        5.403689    2.265162   -2.885840
     43          6           0        1.661430    3.820970    0.140734
     44          1           0        0.998066    3.807162   -0.737350
     45          1           0        2.275547    4.734318    0.062014
     46          6           0        0.847809    3.816555    1.436006
     47          1           0        0.113217    4.638226    1.410144
     48          1           0        0.291593    2.875958    1.571629
     49          1           0        1.483192    3.973075    2.320555
     50          6           0        3.872681    2.395368    1.446338
     51          1           0        4.591521    1.569306    1.348662
     52          1           0        3.194024    2.117803    2.270029
     53          6           0        4.606800    3.706068    1.750617
     54          1           0        3.926051    4.566397    1.823038
     55          1           0        5.136452    3.617013    2.712437
     56          1           0        5.363219    3.938295    0.983842
 ---------------------------------------------------------------------

 SCF Done:  E(RPBE-PBE) =  -51020.0722828     A.U. after    9 cycles

  1  Pt   Isotropic =  2834.6609   Anisotropy =  2788.1990

  2  Cl   Isotropic =   948.9000   Anisotropy =   374.4212

  3  Cl   Isotropic =   961.5716   Anisotropy =   420.6231

  4  Sn   Isotropic =  2079.4239   Anisotropy =   809.7140

  5  Cl   Isotropic =   731.6948   Anisotropy =   369.1127

  6  Cl   Isotropic =   733.8796   Anisotropy =   342.9065

  7  Cl   Isotropic =   725.5655   Anisotropy =   318.7000

  8  P    Isotropic =   210.5210   Anisotropy =   158.3662

  9  C    Isotropic =   151.8161   Anisotropy =    24.7792

 10  H    Isotropic =    28.7720   Anisotropy =    11.7111

 11  H    Isotropic =    29.2996   Anisotropy =     7.3688

 12  C    Isotropic =   170.3482   Anisotropy =     9.6025

 13  H    Isotropic =    30.2308   Anisotropy =     8.8483

 14  H    Isotropic =    30.4984   Anisotropy =     9.7185

 15  H    Isotropic =    29.4654   Anisotropy =    14.1979

 16  C    Isotropic =   150.1931   Anisotropy =    28.5148

 17  H    Isotropic =    28.1785   Anisotropy =     9.7557

 18  H    Isotropic =    29.4058   Anisotropy =    11.9458

 19  C    Isotropic =   173.3617   Anisotropy =    15.3788

 20  H    Isotropic =    30.1367   Anisotropy =     7.6736

 21  H    Isotropic =    30.1364   Anisotropy =     5.3993

 22  H    Isotropic =    29.8521   Anisotropy =    13.1759

 23  C    Isotropic =   147.4868   Anisotropy =    37.1730

 24  H    Isotropic =    29.6122   Anisotropy =     9.8555

 25  H    Isotropic =    28.6668   Anisotropy =     5.3994

 26  C    Isotropic =   172.2852   Anisotropy =    17.5623

 27  H    Isotropic =    30.0193   Anisotropy =    12.5119

 28  H    Isotropic =    30.1503   Anisotropy =    10.5399

 29  H    Isotropic =    30.1621   Anisotropy =     6.0110

 30  Pt   Isotropic =  2814.3787   Anisotropy =  3118.8686

 31  Sn   Isotropic =  2085.2290   Anisotropy =   788.6587

 32  Cl   Isotropic =   747.4092   Anisotropy =   333.7005

 33  Cl   Isotropic =   743.7092   Anisotropy =   364.8265

 34  Cl   Isotropic =   738.1158   Anisotropy =   310.6037

 35  P    Isotropic =   197.4604   Anisotropy =   162.0790

 36  C    Isotropic =   153.3138   Anisotropy =    26.4009

 37  H    Isotropic =    28.6992   Anisotropy =    11.2534

 38  H    Isotropic =    29.4847   Anisotropy =     7.9972

 39  C    Isotropic =   169.7008   Anisotropy =    16.6607

 40  H    Isotropic =    30.0370   Anisotropy =     7.4288

 41  H    Isotropic =    30.6040   Anisotropy =     7.2640

 42  H    Isotropic =    29.8146   Anisotropy =    14.1314

 43  C    Isotropic =   156.0152   Anisotropy =    26.8273

 44  H    Isotropic =    28.9372   Anisotropy =     3.4770

 45  H    Isotropic =    29.2448   Anisotropy =    10.1331

 46  C    Isotropic =   172.4083   Anisotropy =    15.0277

 47  H    Isotropic =    29.9036   Anisotropy =    11.0039

 48  H    Isotropic =    30.0431   Anisotropy =     8.2760

 49  H    Isotropic =    30.2510   Anisotropy =     8.9708

 50  C    Isotropic =   154.4631   Anisotropy =    48.1801

 51  H    Isotropic =    27.9959   Anisotropy =    13.4362

 52  H    Isotropic =    29.3568   Anisotropy =     5.0041

 53  C    Isotropic =   173.9861   Anisotropy =    24.1003

 54  H    Isotropic =    30.6532   Anisotropy =     9.1502

 55  H    Isotropic =    30.1289   Anisotropy =    13.3371

 56  H    Isotropic =    30.5172   Anisotropy =    10.0806

 The electronic state is 1-A.
 Alpha  occ. eigenvalues -- ****************************************-427.54983
 Alpha  occ. eigenvalues -- -427.54665-414.88052-414.87970-414.87731-414.87694
 Alpha  occ. eigenvalues -- -414.87649-414.87375-149.67375-149.67237-141.95188
 Alpha  occ. eigenvalues -- -141.95180-141.95119-141.95050-141.95044-141.94978
 Alpha  occ. eigenvalues -- -100.57260-100.57112-100.57076-100.56916-100.56909
 Alpha  occ. eigenvalues -- -100.56855-100.56841-100.56829 -99.93039 -99.92741
 Alpha  occ. eigenvalues --  -92.08955 -92.08780 -92.08655 -92.08481 -92.08355
 Alpha  occ. eigenvalues --  -92.08057 -79.04817 -79.04686 -79.04512 -79.04451
 Alpha  occ. eigenvalues --  -79.04383 -79.04353 -79.04298 -79.04147 -79.04052
 Alpha  occ. eigenvalues --  -79.03995 -76.32092 -76.31986 -28.83769 -28.83630
 Alpha  occ. eigenvalues --  -25.18405 -25.18380 -25.18268 -25.18247 -25.18181
 Alpha  occ. eigenvalues --  -25.18036 -20.84480 -20.84214 -17.73286 -17.73286
 Alpha  occ. eigenvalues --  -17.73152 -17.73151 -17.73151 -17.73136 -17.73099
 Alpha  occ. eigenvalues --  -17.73009 -17.72996 -17.72956 -17.41438 -17.41174
 Alpha  occ. eigenvalues --  -17.41103 -17.40835 -17.40206 -17.39941 -11.59812
 Alpha  occ. eigenvalues --  -11.59544 -11.59349 -11.59086 -11.58865 -11.58668
 Alpha  occ. eigenvalues --  -11.58598 -11.58551 -11.58405 -11.58285  -9.91985
 Alpha  occ. eigenvalues --   -9.91960  -9.91664  -9.91651  -9.91647  -9.91636
 Alpha  occ. eigenvalues --   -9.89668  -9.89604  -9.89551  -9.89464  -9.89335
 Alpha  occ. eigenvalues --   -9.89308  -9.15076  -9.14975  -9.14930  -9.14752
 Alpha  occ. eigenvalues --   -9.14721  -9.14694  -9.14691  -9.14678  -6.98783
 Alpha  occ. eigenvalues --   -6.98747  -6.98666  -6.98557  -6.98553  -6.98547
 Alpha  occ. eigenvalues --   -6.98509  -6.98502  -6.98284  -6.98185  -6.98177
 Alpha  occ. eigenvalues --   -6.98149  -6.98147  -6.98106  -6.98095  -6.97939
 Alpha  occ. eigenvalues --   -6.97920  -6.97897  -6.97875  -6.97874  -6.97857
 Alpha  occ. eigenvalues --   -6.97857  -6.97828  -6.97794  -6.35134  -6.35044
 Alpha  occ. eigenvalues --   -4.57605  -4.57591  -4.57525  -4.57516  -4.57504
 Alpha  occ. eigenvalues --   -4.57426  -4.52508  -4.52362  -3.25954  -3.25904
 Alpha  occ. eigenvalues --   -3.25810  -3.25766  -3.25579  -3.25420  -3.14669
 Alpha  occ. eigenvalues --   -3.14626  -3.14406  -3.14364  -3.14102  -3.13837
 Alpha  occ. eigenvalues --   -3.13771  -3.13621  -3.13511  -3.13448  -3.13412
 Alpha  occ. eigenvalues --   -3.13361  -3.13186  -3.13148  -2.87424  -2.87214
 Alpha  occ. eigenvalues --   -1.82743  -1.82577  -1.82190  -1.81954  -1.79569
 Alpha  occ. eigenvalues --   -1.79373  -1.05035  -1.05005  -1.04894  -1.04849
 Alpha  occ. eigenvalues --   -1.04646  -1.04594  -1.04537  -1.04499  -1.04436
 Alpha  occ. eigenvalues --   -1.04385  -0.74766  -0.74698  -0.73771  -0.73612
 Alpha  occ. eigenvalues --   -0.72873  -0.72127  -0.71993  -0.71903  -0.71879
 Alpha  occ. eigenvalues --   -0.71748  -0.70384  -0.70345  -0.70003  -0.69912
 Alpha  occ. eigenvalues --   -0.62126  -0.62009  -0.58163  -0.57472  -0.57017
 Alpha  occ. eigenvalues --   -0.56264  -0.50198  -0.50063  -0.44118  -0.43790
 Alpha  occ. eigenvalues --   -0.43582  -0.43226  -0.43193  -0.41802  -0.41394
 Alpha  occ. eigenvalues --   -0.41290  -0.40928  -0.40447  -0.39018  -0.38492
 Alpha  occ. eigenvalues --   -0.38182  -0.37582  -0.37428  -0.36397  -0.35735
 Alpha  occ. eigenvalues --   -0.35593  -0.35503  -0.35054  -0.34935  -0.34523
 Alpha  occ. eigenvalues --   -0.34398  -0.34193  -0.34003  -0.33895  -0.33812
 Alpha  occ. eigenvalues --   -0.33622  -0.33471  -0.32923  -0.32716  -0.32571
 Alpha  occ. eigenvalues --   -0.32281  -0.31936  -0.31640  -0.30955  -0.30577
 Alpha  occ. eigenvalues --   -0.30329  -0.30040  -0.29833  -0.29668  -0.29210
 Alpha  occ. eigenvalues --   -0.28931  -0.28740  -0.28720  -0.28536  -0.28445
 Alpha  occ. eigenvalues --   -0.27929  -0.27784  -0.27648  -0.27376  -0.27302
 Alpha  occ. eigenvalues --   -0.27113  -0.27044  -0.26910  -0.26886  -0.26474
 Alpha  occ. eigenvalues --   -0.25220  -0.25169  -0.24685  -0.24474  -0.24279
 Alpha  occ. eigenvalues --   -0.22713  -0.22286
 Alpha virt. eigenvalues --   -0.13747  -0.12912  -0.06533  -0.05727  -0.04698
 Alpha virt. eigenvalues --   -0.04213  -0.03988  -0.03775  -0.02332  -0.01722
 Alpha virt. eigenvalues --   -0.01276  -0.01150  -0.00946  -0.00570  -0.00326

 Mulliken atomic charges:
              1
     1  Pt   0.381470
     2  Cl  -0.501587
     3  Cl  -0.455974
     4  Sn   0.375067
     5  Cl  -0.193698
     6  Cl  -0.138845
     7  Cl  -0.202646
     8  P    0.197927
     9  C   -0.388920
    10  H    0.118940
    11  H    0.087088
    12  C   -0.119417
    13  H    0.111334
    14  H    0.065772
    15  H    0.136059
    16  C   -0.334189
    17  H    0.089214
    18  H    0.110778
    19  C   -0.125760
    20  H    0.101364
    21  H    0.069949
    22  H    0.138807
    23  C   -0.366980
    24  H    0.115925
    25  H    0.091226
    26  C   -0.168954
    27  H    0.132671
    28  H    0.122399
    29  H    0.081747
    30  Pt   0.360554
    31  Sn   0.373189
    32  Cl  -0.161668
    33  Cl  -0.192838
    34  Cl  -0.160979
    35  P    0.116811
    36  C   -0.388617
    37  H    0.114688
    38  H    0.097509
    39  C   -0.109879
    40  H    0.100361
    41  H    0.071480
    42  H    0.135916
    43  C   -0.389188
    44  H    0.090075
    45  H    0.123983
    46  C   -0.098869
    47  H    0.121110
    48  H    0.068071
    49  H    0.113043
    50  C   -0.257061
    51  H    0.071454
    52  H    0.092798
    53  C   -0.199755
    54  H    0.115746
    55  H    0.143093
    56  H    0.118206
 Sum of Mulliken atomic charges =   0.00000

 Dipole moment (field-independent basis, Debye):
    X=              1.5588    Y=              0.0116    Z=              0.4874  Tot=              1.6333
 Quadrupole moment (field-independent basis, Debye-Ang):
   XX=           -356.2835   YY=           -298.6470   ZZ=           -325.4574
   XY=             91.9141   XZ=             -6.1975   YZ=             -0.4240

 Normal termination of Gaussian 09 at Sat Jun 15 03:07:03 2019.
