 Gaussian 09, Revision D.01,
 Gaussian 09:  EM64L-G09RevD.01 24-Apr-2013

 ----------------------------------------------------------------------
 #PBEPBE/gen scf=(maxcycle=500,conver=4) NMR=GIAO Scrf=(solvent=acetone
 )
 ----------------------------------------------------------------------

 ------------
 estrutura 20
 ------------
 Symbolic Z-matrix:
 Charge = -1 Multiplicity = 1

                         Standard orientation:
 ---------------------------------------------------------------------
 Center     Atomic      Atomic             Coordinates (Angstroms)
 Number     Number       Type             X           Y           Z
 ---------------------------------------------------------------------
      1         78           0       -0.036937    0.141263   -0.168284
      2         50           0       -2.623635    0.527816   -0.914188
      3         50           0        2.520747    0.580762   -0.950507
      4         50           0        0.096609   -1.282296    2.261287
      5         17           0        3.209231    2.818023   -1.698985
      6         17           0        3.712952   -0.664432   -2.699172
      7         17           0        4.227474    0.271173    0.773473
      8         17           0       -3.625723    2.752944   -1.200919
      9         17           0       -3.578812   -0.415425   -2.964109
     10         17           0       -4.305363   -0.361044    0.617817
     11         17           0        0.318266   -0.486276    4.598537
     12         17           0       -1.752143   -2.860815    2.752439
     13         17           0        1.919093   -2.958153    2.426322
     14         33           0       -0.027324    2.476091    0.804181
     15         33           0       -0.078154   -2.042965   -1.435428
     16          6           0       -0.154057    3.816159   -0.645508
     17          1           0       -1.178009    3.710652   -1.036080
     18          1           0        0.539015    3.476687   -1.425313
     19          6           0        0.138022    5.261261   -0.242102
     20          1           0       -0.077720    5.928033   -1.091795
     21          1           0       -0.481838    5.599676    0.601273
     22          1           0        1.195721    5.407984    0.028017
     23          6           0        1.565482    3.101964    1.797882
     24          1           0        2.366728    3.174740    1.044247
     25          1           0        1.300521    4.133134    2.078882
     26          6           0        2.019788    2.306344    3.014471
     27          1           0        2.879058    2.816307    3.477581
     28          1           0        1.234908    2.214566    3.779601
     29          1           0        2.351918    1.296232    2.742330
     30          6           0       -1.549807    2.989229    1.967203
     31          1           0       -1.233955    3.943878    2.416754
     32          1           0       -2.371950    3.213822    1.269060
     33          6           0       -1.996698    1.998463    3.035806
     34          1           0       -1.179636    1.687802    3.702571
     35          1           0       -2.775515    2.465270    3.660143
     36          1           0       -2.438718    1.091951    2.595055
     37          6           0       -0.357237   -1.833772   -3.385249
     38          1           0       -0.010759   -2.778927   -3.828680
     39          1           0       -1.450218   -1.801743   -3.485020
     40          6           0        0.269203   -0.623528   -4.066287
     41          1           0        1.368281   -0.646406   -4.039492
     42          1           0       -0.042209   -0.599255   -5.123415
     43          1           0       -0.065451    0.317222   -3.603897
     44          6           0        1.545819   -3.161239   -1.218267
     45          1           0        1.396486   -3.700063   -0.272987
     46          1           0        2.378284   -2.466973   -1.054979
     47          6           0        1.877334   -4.098807   -2.376248
     48          1           0        2.132922   -3.541206   -3.289114
     49          1           0        2.759017   -4.702812   -2.106750
     50          1           0        1.061894   -4.798290   -2.613462
     51          6           0       -1.606059   -3.223386   -0.941803
     52          1           0       -2.257560   -3.215292   -1.827692
     53          1           0       -2.142785   -2.708462   -0.132749
     54          6           0       -1.267949   -4.649506   -0.512898
     55          1           0       -2.205955   -5.204942   -0.350436
     56          1           0       -0.692645   -5.197602   -1.274195
     57          1           0       -0.711632   -4.672726    0.434442
 ---------------------------------------------------------------------

 SCF Done:  E(RPBE-PBE) =  -44128.1402728     A.U. after    9 cycles

      1  Pt   Isotropic =  3579.4130   Anisotropy =   538.5492

      2  Sn   Isotropic =  2127.0364   Anisotropy =   849.6051

      3  Sn   Isotropic =  2149.6759   Anisotropy =   854.6379

      4  Sn   Isotropic =  2198.7082   Anisotropy =   825.1267

      5  Cl   Isotropic =   732.0335   Anisotropy =   326.6217

      6  Cl   Isotropic =   706.0805   Anisotropy =   348.1717

      7  Cl   Isotropic =   705.4628   Anisotropy =   378.5732

      8  Cl   Isotropic =   705.4338   Anisotropy =   347.4715

      9  Cl   Isotropic =   696.3536   Anisotropy =   392.4508

     10  Cl   Isotropic =   701.3543   Anisotropy =   371.2425

     11  Cl   Isotropic =   670.0333   Anisotropy =   403.6192

     12  Cl   Isotropic =   722.1077   Anisotropy =   367.4718

     13  Cl   Isotropic =   695.5024   Anisotropy =   372.5797

     14  As   Isotropic =   956.8865   Anisotropy =   280.1676

     15  As   Isotropic =   992.4689   Anisotropy =   221.4458

     16  C    Isotropic =   147.0788   Anisotropy =    40.2404

     17  H    Isotropic =    28.0599   Anisotropy =     9.0813

     18  H    Isotropic =    28.4465   Anisotropy =     6.1582

     19  C    Isotropic =   172.8638   Anisotropy =    23.6069

     20  H    Isotropic =    30.1339   Anisotropy =    14.5640

     21  H    Isotropic =    30.0030   Anisotropy =    11.2003

     22  H    Isotropic =    29.8379   Anisotropy =     9.8183

     23  C    Isotropic =   146.6374   Anisotropy =    34.2409

     24  H    Isotropic =    28.5203   Anisotropy =     6.6021

     25  H    Isotropic =    28.9482   Anisotropy =    11.3138

     26  C    Isotropic =   166.0736   Anisotropy =    11.3677

     27  H    Isotropic =    29.8514   Anisotropy =    13.4345

     28  H    Isotropic =    29.8799   Anisotropy =     7.4636

     29  H    Isotropic =    29.5977   Anisotropy =     4.7279

     30  C    Isotropic =   149.4463   Anisotropy =    37.8841

     31  H    Isotropic =    29.2432   Anisotropy =    11.5051

     32  H    Isotropic =    28.4826   Anisotropy =     7.4774

     33  C    Isotropic =   167.5517   Anisotropy =    14.8291

     34  H    Isotropic =    29.4258   Anisotropy =     9.0988

     35  H    Isotropic =    30.1596   Anisotropy =    13.4303

     36  H    Isotropic =    29.6427   Anisotropy =     5.6119

     37  C    Isotropic =   151.7287   Anisotropy =    30.7513

     38  H    Isotropic =    28.2843   Anisotropy =    11.5083

     39  H    Isotropic =    28.6808   Anisotropy =    10.9689

     40  C    Isotropic =   168.2202   Anisotropy =    17.2090

     41  H    Isotropic =    29.5598   Anisotropy =     9.4136

     42  H    Isotropic =    29.7386   Anisotropy =    15.3126

     43  H    Isotropic =    31.0076   Anisotropy =     5.8379

     44  C    Isotropic =   141.0902   Anisotropy =    46.4182

     45  H    Isotropic =    27.7594   Anisotropy =     6.2384

     46  H    Isotropic =    28.9619   Anisotropy =     6.2279

     47  C    Isotropic =   169.0220   Anisotropy =    24.9045

     48  H    Isotropic =    30.0060   Anisotropy =     8.1104

     49  H    Isotropic =    29.8417   Anisotropy =    14.3221

     50  H    Isotropic =    30.4862   Anisotropy =    10.6714

     51  C    Isotropic =   141.9186   Anisotropy =    50.8842

     52  H    Isotropic =    29.0573   Anisotropy =     8.3742

     53  H    Isotropic =    28.4335   Anisotropy =     4.6650

     54  C    Isotropic =   172.1376   Anisotropy =    19.0127

     55  H    Isotropic =    30.3025   Anisotropy =    13.7688

     56  H    Isotropic =    30.4079   Anisotropy =     9.9498

     57  H    Isotropic =    29.5920   Anisotropy =     5.0807

 The electronic state is 1-A.
 Alpha  occ. eigenvalues -- ****************************************-427.56188
 Alpha  occ. eigenvalues -- -422.29343-422.28739-414.89257-414.89098-414.88995
 Alpha  occ. eigenvalues -- -149.66450-149.66004-149.64782-141.94271-141.94263
 Alpha  occ. eigenvalues -- -141.94201-141.93821-141.93815-141.93751-141.92596
 Alpha  occ. eigenvalues -- -141.92595-141.92532-100.55973-100.55884-100.55881
 Alpha  occ. eigenvalues -- -100.55794-100.55605-100.55531-100.54782-100.54623
 Alpha  occ. eigenvalues -- -100.54608 -99.94228 -92.10151 -92.09848 -92.09662
 Alpha  occ. eigenvalues --  -79.05946 -79.05823 -79.05716 -79.05552 -79.05539
 Alpha  occ. eigenvalues --  -53.01019 -53.00464 -47.60269 -47.60268 -47.60244
 Alpha  occ. eigenvalues --  -47.59706 -47.59701 -47.59683 -28.82748 -28.82337
 Alpha  occ. eigenvalues --  -28.81118 -25.17384 -25.17365 -25.17169 -25.16969
 Alpha  occ. eigenvalues --  -25.16953 -25.16757 -25.15737 -25.15736 -25.15548
 Alpha  occ. eigenvalues --  -20.85727 -17.72278 -17.72278 -17.72146 -17.72134
 Alpha  occ. eigenvalues --  -17.72098 -17.71861 -17.71860 -17.71728 -17.71718
 Alpha  occ. eigenvalues --  -17.71681 -17.70634 -17.70633 -17.70507 -17.70507
 Alpha  occ. eigenvalues --  -17.70468 -17.42695 -17.42094 -17.41709 -11.60883
 Alpha  occ. eigenvalues --  -11.60495 -11.60265 -11.59947 -11.59912  -9.91302
 Alpha  occ. eigenvalues --   -9.91235  -9.91179  -9.90821  -9.90717  -9.90696
 Alpha  occ. eigenvalues --   -9.88933  -9.88852  -9.88788  -9.88546  -9.88398
 Alpha  occ. eigenvalues --   -9.88356  -9.13836  -9.13751  -9.13727  -9.13654
 Alpha  occ. eigenvalues --   -9.13481  -9.13400  -9.12634  -9.12488  -9.12471
 Alpha  occ. eigenvalues --   -6.97610  -6.97529  -6.97496  -6.97435  -6.97257
 Alpha  occ. eigenvalues --   -6.97177  -6.97032  -6.97022  -6.96947  -6.96933
 Alpha  occ. eigenvalues --   -6.96933  -6.96914  -6.96848  -6.96836  -6.96681
 Alpha  occ. eigenvalues --   -6.96657  -6.96599  -6.96579  -6.96399  -6.96233
 Alpha  occ. eigenvalues --   -6.96218  -6.95840  -6.95824  -6.95708  -6.95685
 Alpha  occ. eigenvalues --   -6.95682  -6.95669  -6.73153  -6.72721  -4.85929
 Alpha  occ. eigenvalues --   -4.85924  -4.85857  -4.85504  -4.85485  -4.85430
 Alpha  occ. eigenvalues --   -4.51340  -4.50985  -4.49756  -3.24786  -3.24734
 Alpha  occ. eigenvalues --   -3.24431  -3.24383  -3.24382  -3.24032  -3.23182
 Alpha  occ. eigenvalues --   -3.23166  -3.22807  -3.15746  -3.15648  -3.15403
 Alpha  occ. eigenvalues --   -3.15066  -3.15022  -3.14769  -3.14765  -2.88653
 Alpha  occ. eigenvalues --   -1.83723  -1.82672  -1.81666  -1.53752  -1.53746
 Alpha  occ. eigenvalues --   -1.53663  -1.53655  -1.53643  -1.53330  -1.53316
 Alpha  occ. eigenvalues --   -1.53245  -1.53228  -1.53218  -1.03767  -1.03766
 Alpha  occ. eigenvalues --   -1.03431  -1.03424  -1.03422  -1.03382  -1.03284
 Alpha  occ. eigenvalues --   -1.03092  -1.03045  -1.02950  -1.02171  -1.02151
 Alpha  occ. eigenvalues --   -1.01853  -1.01805  -1.01692  -0.72840  -0.72533
 Alpha  occ. eigenvalues --   -0.72490  -0.72184  -0.71232  -0.70990  -0.70853
 Alpha  occ. eigenvalues --   -0.70787  -0.70671  -0.69748  -0.69701  -0.69225
 Alpha  occ. eigenvalues --   -0.69158  -0.69049  -0.69010  -0.60950  -0.60742
 Alpha  occ. eigenvalues --   -0.56660  -0.56184  -0.55865  -0.55434  -0.49926
 Alpha  occ. eigenvalues --   -0.49153  -0.43143  -0.42475  -0.41895  -0.41717
 Alpha  occ. eigenvalues --   -0.41358  -0.41336  -0.41132  -0.40743  -0.39977
 Alpha  occ. eigenvalues --   -0.39577  -0.38181  -0.37722  -0.37678  -0.37186
 Alpha  occ. eigenvalues --   -0.36603  -0.35862  -0.34885  -0.34555  -0.34389
 Alpha  occ. eigenvalues --   -0.34279  -0.34246  -0.33249  -0.33197  -0.32801
 Alpha  occ. eigenvalues --   -0.32750  -0.32591  -0.32219  -0.32104  -0.31996
 Alpha  occ. eigenvalues --   -0.31881  -0.31518  -0.31311  -0.31180  -0.30954
 Alpha  occ. eigenvalues --   -0.30819  -0.30575  -0.30329  -0.30076  -0.29921
 Alpha  occ. eigenvalues --   -0.28410  -0.28171  -0.28096  -0.27890  -0.27840
 Alpha  occ. eigenvalues --   -0.27749  -0.27550  -0.27309  -0.27159  -0.26949
 Alpha  occ. eigenvalues --   -0.26797  -0.26683  -0.26422  -0.26306  -0.26128
 Alpha  occ. eigenvalues --   -0.26075  -0.26055  -0.25954  -0.25698  -0.25241
 Alpha  occ. eigenvalues --   -0.25163  -0.25030  -0.23957  -0.21627  -0.19452
 Alpha virt. eigenvalues --   -0.13036  -0.06929  -0.06438  -0.05884  -0.05411
 Alpha virt. eigenvalues --   -0.05041  -0.04108  -0.03656  -0.03245  -0.02657
 Alpha virt. eigenvalues --   -0.01382  -0.01144  -0.00722  -0.00408  -0.00038

 Mulliken charges:
               1
     1  Pt  -1.786759
     2  Sn   0.495265
     3  Sn   0.459679
     4  Sn   0.533751
     5  Cl  -0.242802
     6  Cl  -0.220756
     7  Cl  -0.237779
     8  Cl  -0.223256
     9  Cl  -0.236254
    10  Cl  -0.228973
    11  Cl  -0.275326
    12  Cl  -0.279030
    13  Cl  -0.281495
    14  As   0.522099
    15  As   0.383148
    16  C   -0.330127
    17  H    0.120723
    18  H    0.124453
    19  C   -0.149987
    20  H    0.140963
    21  H    0.115813
    22  H    0.116308
    23  C   -0.411175
    24  H    0.132692
    25  H    0.138442
    26  C   -0.050550
    27  H    0.122513
    28  H    0.101677
    29  H    0.058296
    30  C   -0.412305
    31  H    0.137150
    32  H    0.135669
    33  C   -0.036099
    34  H    0.081034
    35  H    0.123752
    36  H    0.054994
    37  C   -0.453679
    38  H    0.136396
    39  H    0.138785
    40  C    0.011946
    41  H    0.076276
    42  H    0.118644
    43  H    0.048620
    44  C   -0.361536
    45  H    0.121361
    46  H    0.104385
    47  C   -0.117052
    48  H    0.110650
    49  H    0.129703
    50  H    0.111527
    51  C   -0.396985
    52  H    0.139757
    53  H    0.104484
    54  C   -0.040896
    55  H    0.126980
    56  H    0.107317
    57  H    0.087569
 Sum of Mulliken charges =  -1.00000

 Dipole moment (field-independent basis, Debye):
    X=             -0.5373    Y=              4.4400    Z=             -6.9964  Tot=              8.3038
 Quadrupole moment (field-independent basis, Debye-Ang):
   XX=           -450.7250   YY=           -340.7245   ZZ=           -399.2916
   XY=             -0.2477   XZ=             -2.1169   YZ=             50.8908

 Normal termination of Gaussian 09 at Wed Jul  8 23:47:49 2020.
