 Gaussian 09, Revision D.01,
 Gaussian 09:  EM64L-G09RevD.01 24-Apr-2013

 ----------------------------------------------------------------------
 #PBEPBE/gen scf=(maxcycle=500,conver=4) NMR=GIAO Scrf=(solvent=Dichlor
 omethane)
 ----------------------------------------------------------------------

 ------------
 estrutura 26
 ------------
 Symbolic Z-matrix:
 Charge = -1 Multiplicity = 1

                         Standard orientation:
 ---------------------------------------------------------------------
 Center     Atomic      Atomic             Coordinates (Angstroms)
 Number     Number       Type             X           Y           Z
 ---------------------------------------------------------------------
      1         78           0        0.527326   -0.071161   -1.456424
      2         17           0       -1.046200   -0.090320   -3.298121
      3         17           0        2.419547   -0.110811   -3.010957
      4         50           0        2.490242   -0.044273    0.231094
      5         17           0        4.068352    1.787584    0.114391
      6         17           0        2.088119    0.016781    2.632318
      7         17           0        3.990994   -1.945848    0.205592
      8         15           0       -1.129674    0.019167    0.124307
      9          6           0       -2.872358    0.120279   -0.469684
     10          6           0       -3.530190   -1.045537   -0.899258
     11          6           0       -3.578735    1.333032   -0.481181
     12          6           0       -4.869915   -1.001575   -1.283440
     13          1           0       -2.998652   -1.999764   -0.923495
     14          6           0       -4.920964    1.368435   -0.868058
     15          1           0       -3.090797    2.259430   -0.172250
     16          6           0       -5.597613    0.201971   -1.258309
     17          1           0       -5.363469   -1.924024   -1.604018
     18          1           0       -5.454483    2.324287   -0.853798
     19          6           0       -0.960215    1.553169    1.136421
     20          6           0       -1.573852    1.728872    2.388459
     21          6           0       -0.305549    2.654850    0.557859
     22          6           0       -1.542256    2.964786    3.030127
     23          1           0       -2.099097    0.903774    2.868145
     24          6           0       -0.282534    3.893197    1.204582
     25          1           0        0.182845    2.549836   -0.414359
     26          6           0       -0.906851    4.076453    2.447102
     27          1           0       -2.036400    3.071268    3.999997
     28          1           0        0.225880    4.734870    0.724382
     29          6           0       -1.195012   -1.499521    1.176853
     30          6           0       -2.136468   -1.666939    2.215188
     31          6           0       -0.369649   -2.590903    0.854674
     32          6           0       -2.218034   -2.867071    2.918147
     33          1           0       -2.843371   -0.877018    2.475234
     34          6           0       -0.471321   -3.799351    1.551583
     35          1           0        0.345216   -2.510008    0.030607
     36          6           0       -1.389275   -3.960015    2.600771
     37          1           0       -2.954262   -2.961295    3.724567
     38          1           0        0.177668   -4.632809    1.265591
     39          6           0       -7.066678    0.232857   -1.597725
     40          1           0       -7.339527   -0.582419   -2.286394
     41          1           0       -7.680060    0.112488   -0.685571
     42          1           0       -7.356372    1.191794   -2.057665
     43          6           0       -0.892828    5.411943    3.145146
     44          1           0       -1.868806    5.629766    3.609447
     45          1           0       -0.140042    5.427263    3.952504
     46          1           0       -0.649174    6.229393    2.449022
     47          6           0       -1.494266   -5.254149    3.366242
     48          1           0       -1.023621   -5.159399    4.361384
     49          1           0       -2.547004   -5.536626    3.533693
     50          1           0       -0.991277   -6.078384    2.836992
 ---------------------------------------------------------------------

 SCF Done:  E(RPBE-PBE) =  -26544.5864778     A.U. after   10 cycles

      1  Pt   Isotropic =  2815.9240   Anisotropy =  2026.1829

      2  Cl   Isotropic =   821.2742   Anisotropy =   220.8338

      3  Cl   Isotropic =  1022.2889   Anisotropy =   564.3594

      4  Sn   Isotropic =  2164.7202   Anisotropy =   826.3825

      5  Cl   Isotropic =   777.5884   Anisotropy =   328.3210

      6  Cl   Isotropic =   765.4054   Anisotropy =   296.5788

      7  Cl   Isotropic =   773.0775   Anisotropy =   331.3979

      8  P    Isotropic =   235.9860   Anisotropy =   146.8928

      9  C    Isotropic =    10.4771   Anisotropy =   158.0331

     10  C    Isotropic =    21.6692   Anisotropy =   146.3948

     11  C    Isotropic =    35.9521   Anisotropy =   157.6427

     12  C    Isotropic =    50.5514   Anisotropy =   164.8530

     13  H    Isotropic =    25.2683   Anisotropy =    11.9939

     14  C    Isotropic =    58.2213   Anisotropy =   175.1399

     15  H    Isotropic =    25.7176   Anisotropy =    14.1097

     16  C    Isotropic =    55.4371   Anisotropy =   246.6592

     17  H    Isotropic =    24.6108   Anisotropy =     7.8576

     18  H    Isotropic =    25.5617   Anisotropy =     6.9365

     19  C    Isotropic =    33.4937   Anisotropy =   165.1332

     20  C    Isotropic =    32.0749   Anisotropy =   153.1378

     21  C    Isotropic =    38.4836   Anisotropy =   173.3793

     22  C    Isotropic =    41.2232   Anisotropy =   162.3830

     23  H    Isotropic =    22.6333   Anisotropy =    11.4675

     24  C    Isotropic =    49.4956   Anisotropy =   165.2739

     25  H    Isotropic =    22.5622   Anisotropy =    16.2348

     26  C    Isotropic =    37.3868   Anisotropy =   237.8898

     27  H    Isotropic =    22.6234   Anisotropy =     8.9301

     28  H    Isotropic =    23.6611   Anisotropy =     9.1041

     29  C    Isotropic =    32.6709   Anisotropy =   172.2958

     30  C    Isotropic =    24.7198   Anisotropy =   145.5210

     31  C    Isotropic =    45.0151   Anisotropy =   180.9826

     32  C    Isotropic =    34.7292   Anisotropy =   141.3686

     33  H    Isotropic =    23.2742   Anisotropy =    11.1054

     34  C    Isotropic =    53.5723   Anisotropy =   154.5004

     35  H    Isotropic =    22.6056   Anisotropy =    16.2077

     36  C    Isotropic =    26.6147   Anisotropy =   183.4375

     37  H    Isotropic =    22.8945   Anisotropy =     8.5807

     38  H    Isotropic =    24.4328   Anisotropy =     8.7472

     39  C    Isotropic =   146.6291   Anisotropy =    68.7850

     40  H    Isotropic =    29.7455   Anisotropy =     6.8981

     41  H    Isotropic =    29.3082   Anisotropy =     8.5052

     42  H    Isotropic =    29.6480   Anisotropy =     7.3227

     43  C    Isotropic =   160.7603   Anisotropy =    40.8018

     44  H    Isotropic =    28.5418   Anisotropy =     9.1097

     45  H    Isotropic =    28.5324   Anisotropy =     8.8428

     46  H    Isotropic =    28.6588   Anisotropy =     8.1453

     47  C    Isotropic =   158.5400   Anisotropy =    44.1919

     48  H    Isotropic =    28.6459   Anisotropy =     8.8923

     49  H    Isotropic =    28.7343   Anisotropy =     8.8226

     50  H    Isotropic =    29.0865   Anisotropy =     7.3633

 The electronic state is 1-A.
 Alpha  occ. eigenvalues -- ********************-427.52530-414.85584-414.85523
 Alpha  occ. eigenvalues -- -414.85245-149.64825-141.92638-141.92631-141.92561
 Alpha  occ. eigenvalues -- -100.55002-100.54943-100.54522-100.51529-100.50691
 Alpha  occ. eigenvalues --  -99.90598 -92.06466 -92.06368 -92.05933 -79.02364
 Alpha  occ. eigenvalues --  -79.02226 -79.01992 -79.01939 -79.01875 -76.31401
 Alpha  occ. eigenvalues --  -28.81237 -25.15883 -25.15856 -25.15631 -20.82069
 Alpha  occ. eigenvalues --  -17.70764 -17.70763 -17.70612 -17.70593 -17.70553
 Alpha  occ. eigenvalues --  -17.38937 -17.38747 -17.37831 -11.57386 -11.56893
 Alpha  occ. eigenvalues --  -11.56420 -11.56315 -11.56185  -9.91472  -9.91385
 Alpha  occ. eigenvalues --   -9.91126  -9.90990  -9.90768  -9.90763  -9.90313
 Alpha  occ. eigenvalues --   -9.90266  -9.90055  -9.90055  -9.89727  -9.89636
 Alpha  occ. eigenvalues --   -9.89580  -9.89577  -9.89431  -9.89419  -9.89228
 Alpha  occ. eigenvalues --   -9.89175  -9.88393  -9.88314  -9.88297  -9.12841
 Alpha  occ. eigenvalues --   -9.12785  -9.12377  -9.09328  -9.08502  -6.96650
 Alpha  occ. eigenvalues --   -6.96589  -6.96160  -6.96029  -6.96007  -6.95975
 Alpha  occ. eigenvalues --   -6.95952  -6.95571  -6.95557  -6.93073  -6.92551
 Alpha  occ. eigenvalues --   -6.92536  -6.92254  -6.91755  -6.91670  -6.34260
 Alpha  occ. eigenvalues --   -4.56790  -4.56773  -4.56567  -4.49979  -3.23423
 Alpha  occ. eigenvalues --   -3.23396  -3.23024  -3.12226  -3.12195  -3.11690
 Alpha  occ. eigenvalues --   -3.11341  -3.11193  -3.11110  -3.11058  -2.85049
 Alpha  occ. eigenvalues --   -1.80269  -1.79839  -1.77255  -1.02478  -1.02456
 Alpha  occ. eigenvalues --   -1.02088  -1.02075  -1.02011  -0.79177  -0.78564
 Alpha  occ. eigenvalues --   -0.78208  -0.72359  -0.71511  -0.70401  -0.70001
 Alpha  occ. eigenvalues --   -0.69955  -0.69629  -0.68081  -0.67853  -0.67551
 Alpha  occ. eigenvalues --   -0.66779  -0.65856  -0.64727  -0.61920  -0.61550
 Alpha  occ. eigenvalues --   -0.57101  -0.55465  -0.54808  -0.54769  -0.52687
 Alpha  occ. eigenvalues --   -0.52530  -0.50960  -0.45665  -0.45440  -0.43143
 Alpha  occ. eigenvalues --   -0.42254  -0.41778  -0.41633  -0.41374  -0.40346
 Alpha  occ. eigenvalues --   -0.39841  -0.39435  -0.37776  -0.37476  -0.37437
 Alpha  occ. eigenvalues --   -0.37182  -0.37067  -0.37014  -0.36215  -0.35836
 Alpha  occ. eigenvalues --   -0.35357  -0.33775  -0.33711  -0.33557  -0.32903
 Alpha  occ. eigenvalues --   -0.32440  -0.32215  -0.31964  -0.31678  -0.31532
 Alpha  occ. eigenvalues --   -0.31190  -0.30159  -0.30071  -0.29977  -0.29481
 Alpha  occ. eigenvalues --   -0.28935  -0.28664  -0.27411  -0.27039  -0.26796
 Alpha  occ. eigenvalues --   -0.26490  -0.26401  -0.26067  -0.25544  -0.25317
 Alpha  occ. eigenvalues --   -0.24984  -0.23691  -0.23539  -0.23171  -0.23020
 Alpha  occ. eigenvalues --   -0.22744  -0.22274  -0.21707  -0.21435  -0.20876
 Alpha  occ. eigenvalues --   -0.20493  -0.20375  -0.20081
 Alpha virt. eigenvalues --   -0.10432  -0.06612  -0.05662  -0.05348  -0.05088
 Alpha virt. eigenvalues --   -0.04646  -0.04119  -0.03026  -0.01668  -0.01472
 Alpha virt. eigenvalues --   -0.00658   0.00380   0.00482   0.00781   0.01492

 Mulliken charges:
               1
     1  Pt  -0.043542
     2  Cl  -0.512935
     3  Cl  -0.505428
     4  Sn   0.362415
     5  Cl  -0.235462
     6  Cl  -0.247170
     7  Cl  -0.232684
     8  P    1.325972
     9  C   -0.933870
    10  C    0.542375
    11  C    0.410474
    12  C   -0.327952
    13  H    0.095708
    14  C   -0.361112
    15  H    0.102147
    16  C   -0.153663
    17  H    0.101141
    18  H    0.099830
    19  C   -0.641098
    20  C    0.163780
    21  C    0.658885
    22  C   -0.298318
    23  H    0.074207
    24  C   -0.474627
    25  H    0.095317
    26  C   -0.151380
    27  H    0.107193
    28  H    0.099983
    29  C   -0.851608
    30  C    0.379769
    31  C    0.570144
    32  C   -0.245343
    33  H    0.090069
    34  C   -0.505928
    35  H    0.090681
    36  C   -0.164384
    37  H    0.102327
    38  H    0.100958
    39  C   -0.358319
    40  H    0.146756
    41  H    0.155891
    42  H    0.148236
    43  C   -0.333975
    44  H    0.149565
    45  H    0.151922
    46  H    0.142232
    47  C   -0.335349
    48  H    0.154019
    49  H    0.150445
    50  H    0.141706
 Sum of Mulliken charges =  -1.00000

 Dipole moment (field-independent basis, Debye):
    X=            -17.5173    Y=              0.6633    Z=             12.7742  Tot=             21.6905
 Quadrupole moment (field-independent basis, Debye-Ang):
   XX=           -294.7250   YY=           -235.0403   ZZ=           -305.1974
   XY=              1.9122   XZ=             -7.1016   YZ=             -1.0498

 Normal termination of Gaussian 09 at Tue Feb  4 08:17:00 2020.
