 Gaussian 09, Revision D.01,
 Gaussian 09:  EM64L-G09RevD.01 24-Apr-2013

 ----------------------------------------------------------------------
 #PBEPBE/gen scf=(maxcycle=500,conver=4) NMR=GIAO Scrf=(solvent=Dichlor
 omethane)
 ----------------------------------------------------------------------

 -----------
 estrutura 3
 -----------
 Symbolic Z-matrix:
 Charge =  0 Multiplicity = 1

                         Standard orientation:
 ---------------------------------------------------------------------
 Center     Atomic      Atomic             Coordinates (Angstroms)
 Number     Number       Type             X           Y           Z
 ---------------------------------------------------------------------
      1         78           0       -0.059143   -0.941226   -0.038431
      2          1           0        0.115514   -2.499487   -0.048897
      3         50           0       -0.289422    1.787932   -0.006047
      4         17           0        1.597177    3.121252    0.856074
      5         17           0       -0.575694    3.015889   -2.112112
      6         17           0       -2.048788    2.886703    1.316562
      7         15           0        2.314404   -0.901639   -0.016115
      8         15           0       -2.370067   -1.462437    0.020032
      9          6           0        2.999371   -2.611263   -0.282655
     10          1           0        2.318502   -3.269447    0.279315
     11          1           0        2.812505   -2.830441   -1.348424
     12          6           0        4.448719   -2.923670    0.100639
     13          1           0        4.619213   -2.797535    1.180050
     14          1           0        4.669744   -3.976281   -0.141435
     15          1           0        5.179049   -2.303151   -0.434816
     16          6           0        2.995127    0.204013   -1.347293
     17          1           0        2.289171    0.095442   -2.186709
     18          1           0        2.856220    1.227634   -0.960788
     19          6           0        4.427652    0.000767   -1.849546
     20          1           0        5.177836    0.130034   -1.056405
     21          1           0        4.567521   -0.994476   -2.297626
     22          1           0        4.645500    0.743809   -2.633682
     23          6           0        2.930703   -0.295541    1.627038
     24          1           0        2.716362   -1.114608    2.333706
     25          1           0        2.248952    0.526565    1.888653
     26          6           0        4.373350    0.203660    1.754278
     27          1           0        4.554066    0.530318    2.791712
     28          1           0        5.123150   -0.562312    1.512015
     29          1           0        4.548851    1.076926    1.108223
     30          6           0       -3.455968   -0.911828   -1.380599
     31          1           0       -4.436270   -1.384259   -1.193256
     32          1           0       -3.046608   -1.383700   -2.288201
     33          6           0       -3.618688    0.591242   -1.601034
     34          1           0       -3.975318    1.115240   -0.702293
     35          1           0       -2.680339    1.065542   -1.922443
     36          1           0       -4.356605    0.767182   -2.399342
     37          6           0       -2.693631   -3.290232    0.053369
     38          1           0       -2.150252   -3.681018    0.927723
     39          1           0       -3.770613   -3.422227    0.256998
     40          6           0       -2.285545   -4.057282   -1.206084
     41          1           0       -1.218259   -3.914320   -1.438147
     42          1           0       -2.454813   -5.135734   -1.061556
     43          1           0       -2.869390   -3.748487   -2.087120
     44          6           0       -3.222783   -0.848034    1.545515
     45          1           0       -4.305387   -1.032493    1.414146
     46          1           0       -3.078320    0.240853    1.568959
     47          6           0       -2.720053   -1.476684    2.848799
     48          1           0       -3.183380   -0.975875    3.713194
     49          1           0       -2.975995   -2.546208    2.912852
     50          1           0       -1.626764   -1.383538    2.951357
 ---------------------------------------------------------------------

 SCF Done:  E(RPBE-PBE) =  -25629.2907575     A.U. after    8 cycles

      1  Pt   Isotropic =  3499.5490   Anisotropy =   734.2038

      2  H    Isotropic =    33.4322   Anisotropy =    29.0101

      3  Sn   Isotropic =  2146.2958   Anisotropy =   830.3631

      4  Cl   Isotropic =   756.6198   Anisotropy =   286.8206

      5  Cl   Isotropic =   757.9395   Anisotropy =   320.7734

      6  Cl   Isotropic =   750.1983   Anisotropy =   321.7181

      7  P    Isotropic =   276.4817   Anisotropy =    41.9718

      8  P    Isotropic =   265.0097   Anisotropy =    70.6503

      9  C    Isotropic =   142.2842   Anisotropy =    47.5654

     10  H    Isotropic =    28.7808   Anisotropy =     8.9859

     11  H    Isotropic =    28.6802   Anisotropy =     6.5294

     12  C    Isotropic =   168.2353   Anisotropy =    23.7321

     13  H    Isotropic =    29.9007   Anisotropy =     7.1125

     14  H    Isotropic =    30.0984   Anisotropy =    12.5952

     15  H    Isotropic =    30.1015   Anisotropy =     6.8043

     16  C    Isotropic =   149.9185   Anisotropy =    33.5124

     17  H    Isotropic =    29.0975   Anisotropy =     8.0434

     18  H    Isotropic =    28.4678   Anisotropy =     9.3876

     19  C    Isotropic =   168.3898   Anisotropy =    22.9607

     20  H    Isotropic =    30.1620   Anisotropy =     7.2891

     21  H    Isotropic =    30.0612   Anisotropy =     8.5249

     22  H    Isotropic =    29.9526   Anisotropy =    12.2916

     23  C    Isotropic =   151.2038   Anisotropy =    33.3765

     24  H    Isotropic =    29.0045   Anisotropy =     7.6610

     25  H    Isotropic =    28.6809   Anisotropy =     8.4539

     26  C    Isotropic =   169.2874   Anisotropy =    23.1200

     27  H    Isotropic =    29.9262   Anisotropy =    12.6125

     28  H    Isotropic =    30.0765   Anisotropy =     8.3847

     29  H    Isotropic =    29.9667   Anisotropy =     5.6347

     30  C    Isotropic =   154.0744   Anisotropy =    30.9543

     31  H    Isotropic =    30.0157   Anisotropy =    10.2821

     32  H    Isotropic =    29.4461   Anisotropy =     7.2783

     33  C    Isotropic =   172.3384   Anisotropy =    13.9717

     34  H    Isotropic =    30.2206   Anisotropy =     5.3987

     35  H    Isotropic =    29.8410   Anisotropy =    11.8764

     36  H    Isotropic =    30.1553   Anisotropy =    12.6032

     37  C    Isotropic =   151.7560   Anisotropy =    34.1942

     38  H    Isotropic =    29.6541   Anisotropy =     6.7195

     39  H    Isotropic =    30.1299   Anisotropy =     9.8525

     40  C    Isotropic =   175.1303   Anisotropy =    17.2463

     41  H    Isotropic =    29.9637   Anisotropy =     6.5276

     42  H    Isotropic =    30.2882   Anisotropy =    12.9713

     43  H    Isotropic =    30.5669   Anisotropy =     9.0964

     44  C    Isotropic =   153.1272   Anisotropy =    31.6722

     45  H    Isotropic =    29.9494   Anisotropy =     9.9540

     46  H    Isotropic =    28.5351   Anisotropy =     9.2772

     47  C    Isotropic =   173.9014   Anisotropy =    17.1011

     48  H    Isotropic =    30.1731   Anisotropy =    12.5857

     49  H    Isotropic =    30.4410   Anisotropy =     9.8843

     50  H    Isotropic =    30.5008   Anisotropy =     5.7737

 The electronic state is 1-A.
 Alpha  occ. eigenvalues -- ********************-427.53573-414.86588-414.86579
 Alpha  occ. eigenvalues -- -414.86299-149.64829-141.92640-141.92637-141.92567
 Alpha  occ. eigenvalues -- -100.55224-100.55190-100.55135 -99.91618 -92.07454
 Alpha  occ. eigenvalues --  -92.07374 -92.06998 -79.03351 -79.03237 -79.03030
 Alpha  occ. eigenvalues --  -79.02988 -79.02936 -76.29782 -76.29756 -28.81206
 Alpha  occ. eigenvalues --  -25.15837 -25.15832 -25.15608 -20.83070 -17.70733
 Alpha  occ. eigenvalues --  -17.70732 -17.70582 -17.70578 -17.70534 -17.39876
 Alpha  occ. eigenvalues --  -17.39725 -17.38922 -11.58286 -11.57874 -11.57446
 Alpha  occ. eigenvalues --  -11.57360 -11.57258  -9.90883  -9.90848  -9.90747
 Alpha  occ. eigenvalues --   -9.90707  -9.90598  -9.90577  -9.89090  -9.89038
 Alpha  occ. eigenvalues --   -9.88952  -9.88896  -9.88791  -9.88775  -9.13083
 Alpha  occ. eigenvalues --   -9.13049  -9.12998  -6.96839  -6.96801  -6.96745
 Alpha  occ. eigenvalues --   -6.96290  -6.96278  -6.96258  -6.96246  -6.96212
 Alpha  occ. eigenvalues --   -6.96195  -6.32816  -6.32791  -4.55347  -4.55341
 Alpha  occ. eigenvalues --   -4.55314  -4.55311  -4.55069  -4.55058  -4.49900
 Alpha  occ. eigenvalues --   -3.23335  -3.23322  -3.22926  -3.13150  -3.13125
 Alpha  occ. eigenvalues --   -3.12665  -3.12372  -3.12242  -3.12180  -3.12132
 Alpha  occ. eigenvalues --   -2.86055  -1.81119  -1.80971  -1.78335  -1.02360
 Alpha  occ. eigenvalues --   -1.02356  -1.01985  -1.01975  -1.01874  -0.73471
 Alpha  occ. eigenvalues --   -0.73208  -0.71758  -0.70254  -0.70192  -0.69462
 Alpha  occ. eigenvalues --   -0.69351  -0.69251  -0.69179  -0.61656  -0.61040
 Alpha  occ. eigenvalues --   -0.56621  -0.56493  -0.56319  -0.56274  -0.49329
 Alpha  occ. eigenvalues --   -0.48505  -0.42322  -0.42256  -0.42122  -0.41519
 Alpha  occ. eigenvalues --   -0.41035  -0.40910  -0.40368  -0.39763  -0.39668
 Alpha  occ. eigenvalues --   -0.38296  -0.37169  -0.37053  -0.36516  -0.35542
 Alpha  occ. eigenvalues --   -0.35290  -0.35065  -0.34586  -0.34272  -0.34210
 Alpha  occ. eigenvalues --   -0.33985  -0.33182  -0.32817  -0.32520  -0.31974
 Alpha  occ. eigenvalues --   -0.31885  -0.31529  -0.31437  -0.31062  -0.30637
 Alpha  occ. eigenvalues --   -0.29562  -0.28976  -0.28491  -0.28078  -0.27997
 Alpha  occ. eigenvalues --   -0.27256  -0.27211  -0.26809  -0.26057  -0.25723
 Alpha  occ. eigenvalues --   -0.25674  -0.25558  -0.25262  -0.22510  -0.22161
 Alpha  occ. eigenvalues --   -0.20704
 Alpha virt. eigenvalues --   -0.07692  -0.06671  -0.04230  -0.02833  -0.01981
 Alpha virt. eigenvalues --   -0.01606  -0.01402  -0.00737  -0.00291   0.00032
 Alpha virt. eigenvalues --    0.00448   0.00517   0.01301   0.01701   0.02259

 Mulliken charges:
               1
     1  Pt   0.608077
     2  H    0.054292
     3  Sn   0.234022
     4  Cl  -0.262288
     5  Cl  -0.293314
     6  Cl  -0.293686
     7  P    0.090437
     8  P   -0.051464
     9  C   -0.388072
    10  H    0.104007
    11  H    0.106878
    12  C   -0.209795
    13  H    0.114773
    14  H    0.138294
    15  H    0.113386
    16  C   -0.287926
    17  H    0.096323
    18  H    0.086423
    19  C   -0.234774
    20  H    0.114519
    21  H    0.116040
    22  H    0.138142
    23  C   -0.324048
    24  H    0.101287
    25  H    0.093306
    26  C   -0.201344
    27  H    0.135060
    28  H    0.116030
    29  H    0.114047
    30  C   -0.441782
    31  H    0.117602
    32  H    0.100156
    33  C   -0.155338
    34  H    0.103928
    35  H    0.071287
    36  H    0.141182
    37  C   -0.410129
    38  H    0.097538
    39  H    0.119598
    40  C   -0.242266
    41  H    0.097778
    42  H    0.145502
    43  H    0.119250
    44  C   -0.342302
    45  H    0.111866
    46  H    0.090801
    47  C   -0.206440
    48  H    0.144084
    49  H    0.122462
    50  H    0.086590
 Sum of Mulliken charges =   0.00000

 Dipole moment (field-independent basis, Debye):
    X=              1.3734    Y=            -14.7171    Z=              0.0115  Tot=             14.7810
 Quadrupole moment (field-independent basis, Debye-Ang):
   XX=           -171.5031   YY=           -229.0097   ZZ=           -203.7130
   XY=              7.1191   XZ=              0.0580   YZ=             -0.5384

 Normal termination of Gaussian 09 at Wed Mar 13 23:14:14 2019.
