 Gaussian 09, Revision D.01,
 Gaussian 09:  EM64L-G09RevD.01 24-Apr-2013

 ----------------------------------------------------------------------
 #PBEPBE/gen scf=(maxcycle=500,conver=3) NMR=GIAO Scrf=(solvent=Dichlor
 omethane)
 ----------------------------------------------------------------------

 ------------
 estrutura 97
 ------------
 Symbolic Z-matrix:
 Charge =  0 Multiplicity = 1

                         Standard orientation:
 ---------------------------------------------------------------------
 Center     Atomic      Atomic             Coordinates (Angstroms)
 Number     Number       Type             X           Y           Z
 ---------------------------------------------------------------------
      1         78           0        0.197284   -0.297954   -0.151594
      2         15           0       -1.980155   -1.470409   -0.079066
      3         15           0       -0.502499    1.887490    0.073125
      4          6           0       -2.127830   -2.389523    1.510592
      5          6           0       -3.145708   -3.347604    1.699697
      6          6           0       -1.268481   -2.086248    2.578068
      7          6           0       -3.271856   -4.010128    2.922610
      8          1           0       -3.846808   -3.580536    0.893850
      9          6           0       -1.412173   -2.735558    3.809668
     10          1           0       -0.495219   -1.326574    2.454089
     11          6           0       -2.403981   -3.705427    3.980274
     12          1           0       -4.053586   -4.766983    3.050974
     13          1           0       -0.746371   -2.478339    4.635635
     14          1           0       -2.510038   -4.219521    4.938863
     15          6           0       -1.979819   -2.726754   -1.435711
     16          6           0       -1.921379   -2.279974   -2.768784
     17          6           0       -1.949680   -4.109215   -1.189322
     18          6           0       -1.895169   -3.190157   -3.828205
     19          1           0       -1.874209   -1.213495   -2.994673
     20          6           0       -1.917948   -5.019165   -2.251589
     21          1           0       -1.924125   -4.489425   -0.167564
     22          6           0       -1.902700   -4.564830   -3.572217
     23          1           0       -1.857303   -2.819699   -4.855258
     24          1           0       -1.896283   -6.090807   -2.038106
     25          1           0       -1.880110   -5.278502   -4.399334
     26          6           0       -3.651249   -0.662421   -0.178448
     27          6           0       -4.258263   -0.221687    1.012547
     28          6           0       -4.335676   -0.468267   -1.391868
     29          6           0       -5.516068    0.384255    0.990031
     30          1           0       -3.757439   -0.359994    1.971493
     31          6           0       -5.592415    0.143089   -1.411436
     32          1           0       -3.907587   -0.806170   -2.334822
     33          6           0       -6.187913    0.571447   -0.221900
     34          1           0       -5.972236    0.707589    1.928825
     35          1           0       -6.107893    0.278935   -2.366083
     36          1           0       -7.174196    1.042206   -0.239516
     37          6           0        0.724589    3.269818   -0.048300
     38          6           0        0.976986    4.163881    1.004198
     39          6           0        1.370641    3.464636   -1.280907
     40          6           0        1.868036    5.227212    0.826861
     41          1           0        0.483432    4.040697    1.968042
     42          6           0        2.261186    4.525214   -1.452823
     43          1           0        1.186913    2.785203   -2.114671
     44          6           0        2.513799    5.409618   -0.398060
     45          1           0        2.058119    5.913450    1.656878
     46          1           0        2.763265    4.655739   -2.413838
     47          1           0        3.211591    6.239990   -0.532623
     48          6           0       -1.252709    2.095453    1.741970
     49          6           0       -2.572214    2.504760    1.974633
     50          6           0       -0.429756    1.783970    2.843141
     51          6           0       -3.055368    2.616231    3.284383
     52          1           0       -3.242312    2.724033    1.143524
     53          6           0       -0.915948    1.899466    4.146723
     54          1           0        0.599752    1.459807    2.684384
     55          6           0       -2.231510    2.316983    4.371070
     56          1           0       -4.087989    2.932045    3.450427
     57          1           0       -0.264291    1.658790    4.990645
     58          1           0       -2.613424    2.402849    5.391617
     59          6           0       -1.669944    2.423582   -1.249787
     60          6           0       -2.389773    3.630278   -1.162275
     61          6           0       -1.698248    1.700631   -2.453435
     62          6           0       -3.159211    4.071097   -2.242245
     63          1           0       -2.340096    4.245538   -0.261768
     64          6           0       -2.453278    2.154445   -3.540151
     65          1           0       -1.100251    0.791636   -2.548147
     66          6           0       -3.194199    3.333814   -3.432321
     67          1           0       -3.723398    5.003486   -2.157831
     68          1           0       -2.455942    1.584187   -4.472706
     69          1           0       -3.788441    3.687820   -4.278627
     70         50           0        2.817724    0.085313   -0.131488
     71         17           0        1.110292   -2.561497   -0.315491
     72         17           0        3.563320    1.648966    1.617398
     73         17           0        3.626849    1.003696   -2.266138
     74          6           0        4.379681   -1.410600    0.137409
     75          6           0        4.869786   -1.716755    1.416338
     76          6           0        4.880738   -2.107594   -0.974136
     77          6           0        5.838528   -2.714730    1.582770
     78          1           0        4.510369   -1.168970    2.292347
     79          6           0        5.850291   -3.102386   -0.807311
     80          1           0        4.526485   -1.869593   -1.980970
     81          6           0        6.327326   -3.411194    0.471639
     82          1           0        6.214181   -2.946022    2.583751
     83          1           0        6.234023   -3.637642   -1.681193
     84          1           0        7.082269   -4.190954    0.601812
 ---------------------------------------------------------------------

 SCF Done:  E(RPBE-PBE) =  -26773.7022624     A.U. after    8 cycles

      1  Pt   Isotropic =  2962.4648   Anisotropy =  1671.1897

      2  P    Isotropic =   263.3021   Anisotropy =    64.3948

      3  P    Isotropic =   242.8820   Anisotropy =   134.4231

      4  C    Isotropic =    39.9664   Anisotropy =   217.9555

      5  C    Isotropic =    38.0273   Anisotropy =   190.6906

      6  C    Isotropic =    20.0332   Anisotropy =   160.8743

      7  C    Isotropic =    21.3032   Anisotropy =   158.9770

      8  H    Isotropic =    24.4983   Anisotropy =    12.0153

      9  C    Isotropic =    34.4253   Anisotropy =   174.9094

     10  H    Isotropic =    24.3451   Anisotropy =    12.6179

     11  C    Isotropic =    47.7153   Anisotropy =   287.6597

     12  H    Isotropic =    19.1929   Anisotropy =    11.4507

     13  H    Isotropic =    22.3329   Anisotropy =    10.4115

     14  H    Isotropic =    18.6466   Anisotropy =    12.6714

     15  C    Isotropic =    59.2688   Anisotropy =   248.4160

     16  C    Isotropic =    45.4585   Anisotropy =   223.7384

     17  C    Isotropic =    54.8310   Anisotropy =   225.4797

     18  C    Isotropic =    18.3483   Anisotropy =   183.2323

     19  H    Isotropic =    23.1605   Anisotropy =     9.1789

     20  C    Isotropic =    15.1032   Anisotropy =   164.4566

     21  H    Isotropic =    24.0671   Anisotropy =    12.4099

     22  C    Isotropic =    31.3918   Anisotropy =   274.6220

     23  H    Isotropic =    19.6370   Anisotropy =    12.1610

     24  H    Isotropic =    18.9882   Anisotropy =    13.0571

     25  H    Isotropic =    17.4145   Anisotropy =    13.3775

     26  C    Isotropic =    12.7530   Anisotropy =   190.4977

     27  C    Isotropic =   -26.1150   Anisotropy =    93.3617

     28  C    Isotropic =    38.7901   Anisotropy =   158.2563

     29  C    Isotropic =    56.6492   Anisotropy =   212.4780

     30  H    Isotropic =    26.6368   Anisotropy =    11.1296

     31  C    Isotropic =   100.7508   Anisotropy =   257.6488

     32  H    Isotropic =    25.3610   Anisotropy =    12.3442

     33  C    Isotropic =    70.1078   Anisotropy =   177.3850

     34  H    Isotropic =    25.2298   Anisotropy =     8.2507

     35  H    Isotropic =    28.4257   Anisotropy =     5.3279

     36  H    Isotropic =    27.8143   Anisotropy =     3.8557

     37  C    Isotropic =    76.8751   Anisotropy =   279.4668

     38  C    Isotropic =    49.8683   Anisotropy =   223.6734

     39  C    Isotropic =   102.2194   Anisotropy =   307.5834

     40  C    Isotropic =   -17.4612   Anisotropy =    87.5367

     41  H    Isotropic =    23.1015   Anisotropy =    12.1427

     42  C    Isotropic =     9.2676   Anisotropy =   113.3060

     43  H    Isotropic =    22.9161   Anisotropy =    11.1282

     44  C    Isotropic =     3.0832   Anisotropy =   225.4513

     45  H    Isotropic =    16.3626   Anisotropy =    15.3968

     46  H    Isotropic =    19.7221   Anisotropy =    11.9817

     47  H    Isotropic =    15.1629   Anisotropy =    15.7054

     48  C    Isotropic =    16.2649   Anisotropy =   175.3128

     49  C    Isotropic =   -34.2310   Anisotropy =    89.2466

     50  C    Isotropic =    51.8355   Anisotropy =   199.5805

     51  C    Isotropic =    30.3944   Anisotropy =   190.6182

     52  H    Isotropic =    22.4544   Anisotropy =    16.6532

     53  C    Isotropic =   117.7025   Anisotropy =   273.7160

     54  H    Isotropic =    22.6128   Anisotropy =    14.5040

     55  C    Isotropic =    55.7106   Anisotropy =   143.4982

     56  H    Isotropic =    21.5913   Anisotropy =    10.2107

     57  H    Isotropic =    27.5420   Anisotropy =     6.0257

     58  H    Isotropic =    26.6909   Anisotropy =     3.8544

     59  C    Isotropic =     0.7947   Anisotropy =   130.0352

     60  C    Isotropic =     4.0488   Anisotropy =   123.3390

     61  C    Isotropic =    13.5560   Anisotropy =   125.4939

     62  C    Isotropic =    46.7330   Anisotropy =   213.8851

     63  H    Isotropic =    24.2887   Anisotropy =    13.7483

     64  C    Isotropic =    59.1880   Anisotropy =   221.1774

     65  H    Isotropic =    23.5762   Anisotropy =    12.7294

     66  C    Isotropic =    78.6324   Anisotropy =   293.3257

     67  H    Isotropic =    22.6994   Anisotropy =     7.7822

     68  H    Isotropic =    24.4941   Anisotropy =     6.8537

     69  H    Isotropic =    23.2160   Anisotropy =     5.3965

     70  Sn   Isotropic =  2074.6131   Anisotropy =   562.8173

     71  Cl   Isotropic =   951.3964   Anisotropy =   603.1973

     72  Cl   Isotropic =   848.4179   Anisotropy =   214.0657

     73  Cl   Isotropic =   831.8845   Anisotropy =   238.6129

     74  C    Isotropic =   118.5670   Anisotropy =   205.0159

     75  C    Isotropic =   118.1183   Anisotropy =   234.4928

     76  C    Isotropic =   113.4934   Anisotropy =   236.6572

     77  C    Isotropic =    16.0814   Anisotropy =    64.6107

     78  H    Isotropic =    19.4745   Anisotropy =    20.4868

     79  C    Isotropic =    13.1187   Anisotropy =    65.2105

     80  H    Isotropic =    19.9264   Anisotropy =    20.3081

     81  C    Isotropic =   -63.7651   Anisotropy =   131.2314

     82  H    Isotropic =    22.7750   Anisotropy =     8.4676

     83  H    Isotropic =    23.2779   Anisotropy =     7.9665

     84  H    Isotropic =    21.5902   Anisotropy =     6.2174

 The electronic state is 1-A.
 Alpha  occ. eigenvalues -- ********************-427.54031-414.87069-414.87049
 Alpha  occ. eigenvalues -- -414.86776-149.64104-141.91925-141.91915-141.91792
 Alpha  occ. eigenvalues -- -100.55100-100.55008-100.52873 -99.92078 -92.07888
 Alpha  occ. eigenvalues --  -92.07874 -92.07456 -79.03809 -79.03698 -79.03474
 Alpha  occ. eigenvalues --  -79.03458 -79.03388 -76.32360 -76.30772 -28.80574
 Alpha  occ. eigenvalues --  -25.15277 -25.15244 -25.14854 -20.83532 -17.70168
 Alpha  occ. eigenvalues --  -17.70164 -17.69911 -17.69887 -17.69802 -17.40279
 Alpha  occ. eigenvalues --  -17.40257 -17.39376 -11.58743 -11.58343 -11.57890
 Alpha  occ. eigenvalues --  -11.57846 -11.57706  -9.92849  -9.92795  -9.92640
 Alpha  occ. eigenvalues --   -9.92625  -9.92546  -9.92006  -9.91657  -9.91513
 Alpha  occ. eigenvalues --   -9.91415  -9.91402  -9.91230  -9.91131  -9.91125
 Alpha  occ. eigenvalues --   -9.91092  -9.91040  -9.90999  -9.90951  -9.90910
 Alpha  occ. eigenvalues --   -9.90879  -9.90850  -9.90840  -9.90805  -9.90728
 Alpha  occ. eigenvalues --   -9.90708  -9.90628  -9.90610  -9.90574  -9.90535
 Alpha  occ. eigenvalues --   -9.90454  -9.90425  -9.90344  -9.90331  -9.90315
 Alpha  occ. eigenvalues --   -9.90278  -9.90160  -9.90044  -9.89950  -9.89752
 Alpha  occ. eigenvalues --   -9.89692  -9.89604  -9.89579  -9.89300  -9.12943
 Alpha  occ. eigenvalues --   -9.12846  -9.10848  -6.96710  -6.96603  -6.96164
 Alpha  occ. eigenvalues --   -6.96119  -6.96080  -6.96019  -6.94596  -6.94056
 Alpha  occ. eigenvalues --   -6.94012  -6.35358  -6.33911  -4.57899  -4.57869
 Alpha  occ. eigenvalues --   -4.57626  -4.56459  -4.56437  -4.56111  -4.49429
 Alpha  occ. eigenvalues --   -3.23014  -3.22957  -3.22255  -3.13607  -3.13597
 Alpha  occ. eigenvalues --   -3.13129  -3.12851  -3.12689  -3.12657  -3.12592
 Alpha  occ. eigenvalues --   -2.86617  -1.81742  -1.81413  -1.78980  -1.02188
 Alpha  occ. eigenvalues --   -1.01995  -1.01552  -1.01439  -1.01405  -0.80226
 Alpha  occ. eigenvalues --   -0.79876  -0.79485  -0.79017  -0.78922  -0.78867
 Alpha  occ. eigenvalues --   -0.77902  -0.72172  -0.71744  -0.71016  -0.70165
 Alpha  occ. eigenvalues --   -0.69422  -0.69370  -0.69082  -0.69010  -0.68973
 Alpha  occ. eigenvalues --   -0.68817  -0.68527  -0.68491  -0.68336  -0.68295
 Alpha  occ. eigenvalues --   -0.68290  -0.67715  -0.67195  -0.61288  -0.60764
 Alpha  occ. eigenvalues --   -0.56526  -0.56296  -0.56228  -0.55858  -0.55547
 Alpha  occ. eigenvalues --   -0.55249  -0.55068  -0.54912  -0.54838  -0.54793
 Alpha  occ. eigenvalues --   -0.54401  -0.53696  -0.52248  -0.51903  -0.48106
 Alpha  occ. eigenvalues --   -0.47741  -0.47628  -0.47563  -0.46781  -0.46131
 Alpha  occ. eigenvalues --   -0.45904  -0.42578  -0.42353  -0.42198  -0.42044
 Alpha  occ. eigenvalues --   -0.41691  -0.41532  -0.41351  -0.41333  -0.41124
 Alpha  occ. eigenvalues --   -0.41029  -0.40845  -0.40545  -0.40480  -0.40296
 Alpha  occ. eigenvalues --   -0.39437  -0.39107  -0.38842  -0.38630  -0.38528
 Alpha  occ. eigenvalues --   -0.38472  -0.38395  -0.38111  -0.37737  -0.37519
 Alpha  occ. eigenvalues --   -0.37360  -0.37002  -0.36672  -0.35888  -0.34980
 Alpha  occ. eigenvalues --   -0.34637  -0.34478  -0.34313  -0.33942  -0.33771
 Alpha  occ. eigenvalues --   -0.33662  -0.33526  -0.32891  -0.32282  -0.31932
 Alpha  occ. eigenvalues --   -0.31820  -0.31752  -0.31531  -0.31443  -0.31174
 Alpha  occ. eigenvalues --   -0.31035  -0.30869  -0.30386  -0.30307  -0.30087
 Alpha  occ. eigenvalues --   -0.29853  -0.29757  -0.28342  -0.28036  -0.27339
 Alpha  occ. eigenvalues --   -0.27144  -0.26743  -0.26388  -0.26162  -0.26014
 Alpha  occ. eigenvalues --   -0.25456  -0.25364  -0.25049  -0.24755  -0.24670
 Alpha  occ. eigenvalues --   -0.24508  -0.24450  -0.24132  -0.23859  -0.23639
 Alpha  occ. eigenvalues --   -0.23462  -0.23394  -0.23338  -0.23250  -0.22728
 Alpha  occ. eigenvalues --   -0.22256  -0.21524  -0.20478
 Alpha virt. eigenvalues --   -0.11089  -0.07882  -0.07317  -0.06998  -0.06619
 Alpha virt. eigenvalues --   -0.06416  -0.06225  -0.06185  -0.05863  -0.05754
 Alpha virt. eigenvalues --   -0.05567  -0.05301  -0.04883  -0.04743  -0.04602

 Mulliken charges:
               1
     1  Pt   0.506997
     2  P    1.261207
     3  P    0.996378
     4  C   -0.839961
     5  C    0.261435
     6  C    0.308956
     7  C    0.041773
     8  H    0.099444
     9  C   -0.198302
    10  H    0.073234
    11  C   -0.613016
    12  H    0.145352
    13  H    0.140073
    14  H    0.155633
    15  C   -0.890265
    16  C    0.634546
    17  C    0.230908
    18  C   -0.078211
    19  H    0.059720
    20  C   -0.239263
    21  H    0.097560
    22  C   -0.569821
    23  H    0.140820
    24  H    0.143545
    25  H    0.154520
    26  C   -1.040832
    27  C    0.551152
    28  C    0.234064
    29  C   -0.050439
    30  H    0.072620
    31  C   -0.143492
    32  H    0.072118
    33  C   -0.554626
    34  H    0.125836
    35  H    0.135896
    36  H    0.147360
    37  C   -1.194392
    38  C    0.367367
    39  C    0.405393
    40  C   -0.132828
    41  H    0.083754
    42  C    0.004807
    43  H    0.094974
    44  C   -0.525495
    45  H    0.140336
    46  H    0.139809
    47  H    0.148770
    48  C   -0.839613
    49  C    0.459563
    50  C    0.446876
    51  C   -0.233587
    52  H    0.061109
    53  C   -0.045253
    54  H    0.060564
    55  C   -0.536938
    56  H    0.128493
    57  H    0.136765
    58  H    0.151219
    59  C   -0.797463
    60  C    0.178753
    61  C    0.583767
    62  C   -0.022798
    63  H    0.095514
    64  C   -0.202484
    65  H    0.034218
    66  C   -0.558778
    67  H    0.142452
    68  H    0.127608
    69  H    0.149720
    70  Sn   0.393981
    71  Cl  -0.382265
    72  Cl  -0.263039
    73  Cl  -0.276256
    74  C   -0.159728
    75  C   -0.026328
    76  C    0.032846
    77  C   -0.116714
    78  H    0.133476
    79  C   -0.105434
    80  H    0.132055
    81  C   -0.464491
    82  H    0.159128
    83  H    0.158660
    84  H    0.158985
 Sum of Mulliken charges =   0.00000

 Dipole moment (field-independent basis, Debye):
    X=            -16.0342    Y=              2.0423    Z=              2.0812  Tot=             16.2972
 Quadrupole moment (field-independent basis, Debye-Ang):
   XX=           -360.8963   YY=           -333.1283   ZZ=           -322.6478
   XY=            -12.4880   XZ=              4.5183   YZ=             -1.7386

 1\1\GINC-NEQC27\SP\RPBEPBE\Gen\C42H35Cl3P2Pt1Sn1\GUEST\12-Dec-2019\0\\
 #PBEPBE/gen scf=(maxcycle=500,conver=3) NMR=GIAO Scrf=(solvent=Dichlor
 omethane)\\estrutura 97\\0,1\Pt,0,-0.197284,0.297954,-0.151594\P,0,1.9
 80155,1.470409,-0.079066\P,0,0.502499,-1.88749,0.073125\C,0,2.12783,2.
 389523,1.510592\C,0,3.145708,3.347604,1.699697\C,0,1.268481,2.086248,2
 .578068\C,0,3.271856,4.010128,2.92261\H,0,3.846808,3.580536,0.89385\C,
 0,1.412173,2.735558,3.809668\H,0,0.495219,1.326574,2.454089\C,0,2.4039
 81,3.705427,3.980274\H,0,4.053586,4.766983,3.050974\H,0,0.746371,2.478

 Normal termination of Gaussian 09 at Thu Dec 12 22:59:28 2019.
