 Gaussian 09, Revision D.01,
 Gaussian 09:  EM64L-G09RevD.01 24-Apr-2013

 ----------------------------------------------------------------------
 #PBEPBE/gen scf=(maxcycle=500,conver=4) NMR=GIAO Scrf=(solvent=Dichlor
 omethane)
 ----------------------------------------------------------------------

 ------------
 estrutura 37
 ------------
 Symbolic Z-matrix:
 Charge = -1 Multiplicity = 1

                         Standard orientation:
 ---------------------------------------------------------------------
 Center     Atomic      Atomic             Coordinates (Angstroms)
 Number     Number       Type             X           Y           Z
 ---------------------------------------------------------------------
      1         78           0        0.166627   -0.652586    0.022124
      2         17           0       -0.272861   -3.065181    0.057442
      3         50           0       -2.489422   -0.354688   -0.053704
      4         50           0        0.584870    1.898314    0.041935
      5         17           0        2.395787    2.733879    1.426603
      6         17           0       -1.141713    3.337468    0.930097
      7         17           0        1.079287    3.053000   -2.023067
      8         17           0       -3.489180    1.367936   -1.459713
      9         17           0       -3.687454    0.005544    2.035185
     10         17           0       -3.819757   -2.214353   -0.878239
     11         33           0        2.540281   -1.385513    0.082996
     12          6           0        2.683399   -2.457202    1.729587
     13          1           0        3.747419   -2.576065    1.985805
     14          1           0        2.272316   -3.440503    1.462633
     15          6           0        1.856791   -1.814048    2.849860
     16          1           0        2.335963   -0.908876    3.255196
     17          1           0        0.878697   -1.510966    2.442024
     18          1           0        1.700986   -2.519066    3.681319
     19          6           0        2.784134   -2.519302   -1.512005
     20          1           0        3.860989   -2.613054   -1.721059
     21          1           0        2.399586   -3.505120   -1.215871
     22          6           0        1.982264   -1.961198   -2.694216
     23          1           0        2.458195   -1.073561   -3.139396
     24          1           0        1.863072   -2.717878   -3.485318
     25          1           0        0.988312   -1.648418   -2.339098
     26          6           0        4.268915    0.710038   -1.090682
     27          1           0        4.425147    0.114763   -2.003606
     28          1           0        3.407676    1.373328   -1.256037
     29          1           0        5.153309    1.354154   -0.961069
     30          6           0        4.079149   -0.164856    0.144277
     31          1           0        4.954389   -0.813688    0.315580
     32          1           0        3.937627    0.455705    1.040686
 ---------------------------------------------------------------------

 SCF Done:  E(RPBE-PBE) =  -34759.8117120     A.U. after    8 cycles

      1  Pt   Isotropic =  3312.6982   Anisotropy =  1173.8627

      2  Cl   Isotropic =  1014.6147   Anisotropy =   654.1989

      3  Sn   Isotropic =  2161.9563   Anisotropy =   732.8502

      4  Sn   Isotropic =  2064.5305   Anisotropy =   927.9135

      5  Cl   Isotropic =   743.9557   Anisotropy =   348.7695

      6  Cl   Isotropic =   689.1087   Anisotropy =   376.2104

      7  Cl   Isotropic =   723.9924   Anisotropy =   376.0314

      8  Cl   Isotropic =   729.5853   Anisotropy =   353.3309

      9  Cl   Isotropic =   760.2379   Anisotropy =   346.8923

     10  Cl   Isotropic =   780.3436   Anisotropy =   291.3143

     11  As   Isotropic =   889.1669   Anisotropy =   347.0002

     12  C    Isotropic =   152.7026   Anisotropy =    36.7846

     13  H    Isotropic =    29.7243   Anisotropy =    12.1189

     14  H    Isotropic =    28.6933   Anisotropy =     9.2218

     15  C    Isotropic =   166.2274   Anisotropy =    21.6083

     16  H    Isotropic =    30.3904   Anisotropy =     8.5870

     17  H    Isotropic =    29.2365   Anisotropy =    15.7601

     18  H    Isotropic =    30.0474   Anisotropy =    14.0794

     19  C    Isotropic =   155.0191   Anisotropy =    34.3435

     20  H    Isotropic =    29.6181   Anisotropy =    11.8268

     21  H    Isotropic =    28.8388   Anisotropy =     9.7132

     22  C    Isotropic =   165.4893   Anisotropy =    24.6782

     23  H    Isotropic =    30.4525   Anisotropy =     7.8511

     24  H    Isotropic =    30.0596   Anisotropy =    14.0176

     25  H    Isotropic =    29.3124   Anisotropy =    15.4254

     26  C    Isotropic =   169.3495   Anisotropy =    16.4849

     27  H    Isotropic =    30.3128   Anisotropy =     9.3087

     28  H    Isotropic =    30.0042   Anisotropy =    10.1318

     29  H    Isotropic =    29.7328   Anisotropy =    13.6587

     30  C    Isotropic =   152.1509   Anisotropy =    30.2190

     31  H    Isotropic =    29.1961   Anisotropy =    12.5898

     32  H    Isotropic =    28.5470   Anisotropy =     6.9477

 The electronic state is 1-A.
 Alpha  occ. eigenvalues -- ******************************-427.52958-422.27869
 Alpha  occ. eigenvalues -- -414.85987-414.85954-414.85692-149.65507-149.64890
 Alpha  occ. eigenvalues -- -141.93317-141.93313-141.93242-141.92702-141.92698
 Alpha  occ. eigenvalues -- -141.92630-100.55770-100.55550-100.55306-100.54998
 Alpha  occ. eigenvalues -- -100.54767-100.54676-100.52283 -99.91022 -92.06864
 Alpha  occ. eigenvalues --  -92.06789 -92.06384 -79.02753 -79.02645 -79.02425
 Alpha  occ. eigenvalues --  -79.02378 -79.02315 -52.99563 -47.58825 -47.58812
 Alpha  occ. eigenvalues --  -47.58778 -28.81929 -28.81277 -25.16565 -25.16552
 Alpha  occ. eigenvalues --  -25.16324 -25.15910 -25.15901 -25.15680 -20.82467
 Alpha  occ. eigenvalues --  -17.71451 -17.71451 -17.71297 -17.71288 -17.71245
 Alpha  occ. eigenvalues --  -17.70802 -17.70801 -17.70652 -17.70647 -17.70603
 Alpha  occ. eigenvalues --  -17.39280 -17.39141 -17.38288 -11.57682 -11.57297
 Alpha  occ. eigenvalues --  -11.56848 -11.56746 -11.56614  -9.90632  -9.90530
 Alpha  occ. eigenvalues --   -9.90402  -9.88337  -9.88062  -9.88045  -9.13602
 Alpha  occ. eigenvalues --   -9.13388  -9.13139  -9.12816  -9.12595  -9.12498
 Alpha  occ. eigenvalues --   -9.10114  -6.97405  -6.97181  -6.96944  -6.96790
 Alpha  occ. eigenvalues --   -6.96775  -6.96609  -6.96580  -6.96567  -6.96400
 Alpha  occ. eigenvalues --   -6.96329  -6.96311  -6.96284  -6.96012  -6.95997
 Alpha  occ. eigenvalues --   -6.95791  -6.95761  -6.95703  -6.95677  -6.93889
 Alpha  occ. eigenvalues --   -6.93331  -6.93287  -6.71637  -4.84443  -4.84408
 Alpha  occ. eigenvalues --   -4.84316  -4.50695  -4.49982  -3.24139  -3.24118
 Alpha  occ. eigenvalues --   -3.23739  -3.23418  -3.23400  -3.23025  -3.12545
 Alpha  occ. eigenvalues --   -3.12532  -3.12058  -3.11787  -3.11631  -3.11544
 Alpha  occ. eigenvalues --   -3.11493  -2.85462  -1.80497  -1.80303  -1.77873
 Alpha  occ. eigenvalues --   -1.52277  -1.52268  -1.52164  -1.52135  -1.52128
 Alpha  occ. eigenvalues --   -1.03210  -1.03199  -1.02808  -1.02789  -1.02740
 Alpha  occ. eigenvalues --   -1.02463  -1.02433  -1.02093  -1.02036  -1.01972
 Alpha  occ. eigenvalues --   -0.72296  -0.71772  -0.71393  -0.70653  -0.70354
 Alpha  occ. eigenvalues --   -0.69822  -0.69612  -0.68793  -0.68641  -0.67383
 Alpha  occ. eigenvalues --   -0.59871  -0.55392  -0.54813  -0.49392  -0.42295
 Alpha  occ. eigenvalues --   -0.41530  -0.41124  -0.40400  -0.39664  -0.39400
 Alpha  occ. eigenvalues --   -0.37264  -0.35921  -0.34438  -0.33952  -0.33068
 Alpha  occ. eigenvalues --   -0.32973  -0.32669  -0.32491  -0.31872  -0.31634
 Alpha  occ. eigenvalues --   -0.31599  -0.31254  -0.30926  -0.30482  -0.29368
 Alpha  occ. eigenvalues --   -0.28530  -0.27713  -0.27562  -0.27365  -0.27345
 Alpha  occ. eigenvalues --   -0.27123  -0.26716  -0.26711  -0.26516  -0.26173
 Alpha  occ. eigenvalues --   -0.25855  -0.25643  -0.25519  -0.25156  -0.25136
 Alpha  occ. eigenvalues --   -0.24698  -0.23502  -0.22953  -0.21932  -0.21331
 Alpha  occ. eigenvalues --   -0.20481
 Alpha virt. eigenvalues --   -0.11439  -0.06359  -0.04916  -0.03521  -0.02441
 Alpha virt. eigenvalues --   -0.01693  -0.01147  -0.00260  -0.00107   0.00027
 Alpha virt. eigenvalues --    0.00981   0.01072   0.01335   0.01819   0.01882

 Mulliken charges:
               1
     1  Pt  -0.251592
     2  Cl  -0.488215
     3  Sn   0.270466
     4  Sn   0.218588
     5  Cl  -0.255881
     6  Cl  -0.184234
     7  Cl  -0.217561
     8  Cl  -0.256153
     9  Cl  -0.242045
    10  Cl  -0.231537
    11  As   0.370482
    12  C   -0.424553
    13  H    0.139040
    14  H    0.164586
    15  C   -0.106358
    16  H    0.103264
    17  H    0.081010
    18  H    0.135440
    19  C   -0.436935
    20  H    0.147401
    21  H    0.159747
    22  C   -0.090287
    23  H    0.103889
    24  H    0.132837
    25  H    0.077980
    26  C   -0.065019
    27  H    0.117607
    28  H    0.063450
    29  H    0.134382
    30  C   -0.467087
    31  H    0.148743
    32  H    0.148545
 Sum of Mulliken charges =  -1.00000

 Dipole moment (field-independent basis, Debye):
    X=             17.1398    Y=             -6.2543    Z=              0.0120  Tot=             18.2452
 Quadrupole moment (field-independent basis, Debye-Ang):
   XX=           -267.9466   YY=           -283.1588   ZZ=           -245.1954
   XY=            -21.9405   XZ=             -1.7115   YZ=             -1.2145

 Normal termination of Gaussian 09 at Wed Oct  9 11:42:09 2019.
