 Gaussian 09, Revision D.01,
 Gaussian 09:  EM64L-G09RevD.01 24-Apr-2013

 ----------------------------------------------------------------------
 #PBEPBE/gen scf=(maxcycle=500,conver=4) NMR=GIAO Scrf=(solvent=Dichlor
 omethane)
 ----------------------------------------------------------------------

 ------------
 estrutura 61
 ------------
 Symbolic Z-matrix:
 Charge =  0 Multiplicity = 1

                         Standard orientation:
 ---------------------------------------------------------------------
 Center     Atomic      Atomic             Coordinates (Angstroms)
 Number     Number       Type             X           Y           Z
 ---------------------------------------------------------------------
      1         15           0       -2.300608   -0.544500    0.206785
      2         15           0        2.357022    0.519132   -0.076686
      3          6           0       -2.802168   -2.284975    0.275139
      4          6           0       -3.326110   -2.575978    1.488395
      5          6           0       -3.386417   -1.403578    2.418806
      6          6           0       -2.936278   -0.247120    1.875763
      7          6           0       -3.797179   -3.934499    1.910201
      8          6           0       -3.933454   -1.536057    3.809622
      9          6           0        3.020060    0.526046   -1.752976
     10          6           0        3.461172    1.770508   -2.066441
     11          6           0        3.406708    2.744614   -0.931177
     12          6           0        2.875850    2.231159    0.202822
     13          6           0        3.927744    2.178234   -3.432454
     14          6           0        3.900012    4.151578   -1.077479
     15          1           0       -2.696142   -2.978331   -0.558064
     16          1           0       -2.903071    0.719249    2.376277
     17          1           0       -4.789978   -3.889123    2.388948
     18          1           0       -3.849358   -4.622653    1.054670
     19          1           0       -3.101257   -4.364366    2.653680
     20          1           0       -3.577475   -2.458910    4.294495
     21          1           0       -3.648117   -0.677763    4.435426
     22          1           0       -5.037288   -1.587811    3.790269
     23          1           0        2.967759   -0.322009   -2.435141
     24          1           0        2.753637    2.759735    1.148126
     25          1           0        4.794004    2.858392   -3.388355
     26          1           0        4.192316    1.300820   -4.040802
     27          1           0        3.122525    2.724165   -3.959369
     28          1           0        4.958534    4.174570   -1.388725
     29          1           0        3.323368    4.682354   -1.855252
     30          1           0        3.796927    4.705662   -0.134961
     31         78           0        0.027610   -0.001298    0.017015
     32         50           0       -0.537037    2.521713    0.657911
     33         17           0       -2.814866    3.213620    1.098830
     34         17           0        0.021182    4.245486   -0.937870
     35         17           0        0.474745    3.323311    2.711794
     36         50           0        0.534014   -2.487010   -0.823504
     37         17           0        0.359538   -4.286266    0.778437
     38         17           0        2.657615   -3.059866   -1.845823
     39         17           0       -0.891048   -3.280304   -2.621640
     40          6           0        3.374743   -0.483472    1.070997
     41          6           0        3.036786   -0.459061    2.437419
     42          6           0        4.503765   -1.200135    0.639291
     43          6           0        3.831962   -1.137156    3.363674
     44          1           0        2.157947    0.098605    2.779446
     45          6           0        5.289090   -1.883094    1.574095
     46          1           0        4.766300   -1.236790   -0.418917
     47          6           0        4.957810   -1.849667    2.934007
     48          1           0        3.568835   -1.107659    4.427019
     49          1           0        6.165575   -2.441620    1.235150
     50          1           0        5.576743   -2.381679    3.660743
     51          6           0       -3.380175    0.229265   -1.060748
     52          6           0       -4.774882    0.094291   -0.949724
     53          6           0       -2.831551    0.902058   -2.162731
     54          6           0       -5.606999    0.635066   -1.930166
     55          1           0       -5.211387   -0.436122   -0.098364
     56          6           0       -3.672315    1.443221   -3.142108
     57          1           0       -1.746349    1.007966   -2.262623
     58          6           0       -5.056997    1.311460   -3.027308
     59          1           0       -6.692181    0.525259   -1.839144
     60          1           0       -3.238294    1.971041   -3.995468
     61          1           0       -5.711098    1.735684   -3.792937
 ---------------------------------------------------------------------

 SCF Done:  E(RPBE-PBE) =  -33442.9029858     A.U. after    9 cycles

      1  P    Isotropic =   258.9189   Anisotropy =    59.5660

      2  P    Isotropic =   279.1998   Anisotropy =    79.3007

      3  C    Isotropic =    36.7580   Anisotropy =   120.6570

      4  C    Isotropic =    16.7228   Anisotropy =   139.8120

      5  C    Isotropic =    14.9747   Anisotropy =   149.0700

      6  C    Isotropic =    48.0754   Anisotropy =   116.4550

      7  C    Isotropic =   163.1519   Anisotropy =    28.5750

      8  C    Isotropic =   162.5467   Anisotropy =    32.5309

      9  C    Isotropic =    42.8863   Anisotropy =   101.9838

     10  C    Isotropic =    17.4335   Anisotropy =   198.0512

     11  C    Isotropic =    19.0717   Anisotropy =   152.4599

     12  C    Isotropic =    40.9021   Anisotropy =   124.3322

     13  C    Isotropic =   162.9144   Anisotropy =    35.5727

     14  C    Isotropic =   161.3343   Anisotropy =    28.5168

     15  H    Isotropic =    23.7922   Anisotropy =     9.9649

     16  H    Isotropic =    24.6135   Anisotropy =    10.5986

     17  H    Isotropic =    28.8598   Anisotropy =    10.0506

     18  H    Isotropic =    28.9769   Anisotropy =     7.2017

     19  H    Isotropic =    29.2620   Anisotropy =     7.1208

     20  H    Isotropic =    29.0941   Anisotropy =     7.1460

     21  H    Isotropic =    29.1397   Anisotropy =     6.4857

     22  H    Isotropic =    28.7611   Anisotropy =    10.8471

     23  H    Isotropic =    23.1137   Anisotropy =    10.8543

     24  H    Isotropic =    23.8142   Anisotropy =     7.5734

     25  H    Isotropic =    28.6400   Anisotropy =     9.4169

     26  H    Isotropic =    28.4307   Anisotropy =     7.9598

     27  H    Isotropic =    29.0679   Anisotropy =     7.3448

     28  H    Isotropic =    28.6905   Anisotropy =    11.1015

     29  H    Isotropic =    29.2307   Anisotropy =     6.5563

     30  H    Isotropic =    29.2015   Anisotropy =     6.5961

     31  Pt   Isotropic =  3605.7838   Anisotropy =  1287.4292

     32  Sn   Isotropic =  2129.9374   Anisotropy =   708.4737

     33  Cl   Isotropic =   740.7918   Anisotropy =   290.0290

     34  Cl   Isotropic =   760.0075   Anisotropy =   314.8378

     35  Cl   Isotropic =   722.3999   Anisotropy =   341.3248

     36  Sn   Isotropic =  2130.6343   Anisotropy =   700.7027

     37  Cl   Isotropic =   756.2131   Anisotropy =   325.0177

     38  Cl   Isotropic =   745.2435   Anisotropy =   295.6130

     39  Cl   Isotropic =   722.2543   Anisotropy =   334.7287

     40  C    Isotropic =    45.3740   Anisotropy =   172.5373

     41  C    Isotropic =    44.1323   Anisotropy =   179.2635

     42  C    Isotropic =    40.3543   Anisotropy =   157.9008

     43  C    Isotropic =    48.7979   Anisotropy =   176.9604

     44  H    Isotropic =    23.5651   Anisotropy =    13.6848

     45  C    Isotropic =    47.3544   Anisotropy =   175.1104

     46  H    Isotropic =    23.8622   Anisotropy =    11.1667

     47  C    Isotropic =    44.7382   Anisotropy =   179.1395

     48  H    Isotropic =    24.0493   Anisotropy =     7.3145

     49  H    Isotropic =    24.0942   Anisotropy =     6.0786

     50  H    Isotropic =    24.0559   Anisotropy =     3.1711

     51  C    Isotropic =    55.1628   Anisotropy =   152.9543

     52  C    Isotropic =    79.7405   Anisotropy =   236.0527

     53  C    Isotropic =    32.4050   Anisotropy =   166.9924

     54  C    Isotropic =    50.4723   Anisotropy =   165.3129

     55  H    Isotropic =    25.4538   Anisotropy =    11.4786

     56  C    Isotropic =    29.3290   Anisotropy =   156.8366

     57  H    Isotropic =    24.3503   Anisotropy =    14.1599

     58  C    Isotropic =    33.8653   Anisotropy =   178.8577

     59  H    Isotropic =    24.3514   Anisotropy =     4.9854

     60  H    Isotropic =    22.1598   Anisotropy =    10.7868

     61  H    Isotropic =    22.3598   Anisotropy =     5.9490

 The electronic state is 1-A.
 Alpha  occ. eigenvalues -- ******************************-427.56286-414.89338
 Alpha  occ. eigenvalues -- -414.89275-414.89019-149.66993-149.66930-141.94805
 Alpha  occ. eigenvalues -- -141.94798-141.94741-141.94737-141.94734-141.94674
 Alpha  occ. eigenvalues -- -100.56808-100.56739-100.56688-100.56615-100.56607
 Alpha  occ. eigenvalues -- -100.56559 -99.94324 -92.10175 -92.10093 -92.09680
 Alpha  occ. eigenvalues --  -79.06062 -79.05964 -79.05730 -79.05688 -79.05617
 Alpha  occ. eigenvalues --  -76.32606 -76.32528 -28.83373 -28.83322 -25.18005
 Alpha  occ. eigenvalues --  -25.17986 -25.17953 -25.17935 -25.17791 -25.17739
 Alpha  occ. eigenvalues --  -20.85781 -17.72889 -17.72889 -17.72837 -17.72836
 Alpha  occ. eigenvalues --  -17.72757 -17.72746 -17.72709 -17.72704 -17.72694
 Alpha  occ. eigenvalues --  -17.72656 -17.42613 -17.42445 -17.41599 -11.60985
 Alpha  occ. eigenvalues --  -11.60636 -11.60152 -11.60077 -11.59920  -9.93459
 Alpha  occ. eigenvalues --   -9.93342  -9.93309  -9.93301  -9.93083  -9.92972
 Alpha  occ. eigenvalues --   -9.91819  -9.91735  -9.91571  -9.91457  -9.91243
 Alpha  occ. eigenvalues --   -9.91125  -9.91097  -9.91059  -9.91021  -9.90996
 Alpha  occ. eigenvalues --   -9.90970  -9.90948  -9.90926  -9.90786  -9.89943
 Alpha  occ. eigenvalues --   -9.89888  -9.89756  -9.89674  -9.14668  -9.14599
 Alpha  occ. eigenvalues --   -9.14546  -9.14489  -9.14484  -9.14431  -6.98465
 Alpha  occ. eigenvalues --   -6.98406  -6.98358  -6.98284  -6.98282  -6.98232
 Alpha  occ. eigenvalues --   -6.97859  -6.97839  -6.97782  -6.97765  -6.97734
 Alpha  occ. eigenvalues --   -6.97703  -6.97678  -6.97668  -6.97658  -6.97655
 Alpha  occ. eigenvalues --   -6.97613  -6.97603  -6.35625  -6.35589  -4.58130
 Alpha  occ. eigenvalues --   -4.58123  -4.58097  -4.58088  -4.57940  -4.57890
 Alpha  occ. eigenvalues --   -4.52095  -4.52064  -3.25531  -3.25500  -3.25492
 Alpha  occ. eigenvalues --   -3.25463  -3.25170  -3.25141  -3.15871  -3.15847
 Alpha  occ. eigenvalues --   -3.15367  -3.15119  -3.14935  -3.14866  -3.14801
 Alpha  occ. eigenvalues --   -2.88762  -1.83936  -1.83486  -1.81085  -1.04582
 Alpha  occ. eigenvalues --   -1.04577  -1.04564  -1.04555  -1.04215  -1.04197
 Alpha  occ. eigenvalues --   -1.04179  -1.04148  -1.04145  -1.04092  -0.80408
 Alpha  occ. eigenvalues --   -0.80357  -0.79291  -0.79262  -0.73413  -0.73385
 Alpha  occ. eigenvalues --   -0.71813  -0.71741  -0.71671  -0.71638  -0.70978
 Alpha  occ. eigenvalues --   -0.70889  -0.70190  -0.70169  -0.69323  -0.69263
 Alpha  occ. eigenvalues --   -0.67524  -0.67471  -0.61940  -0.61936  -0.59970
 Alpha  occ. eigenvalues --   -0.59647  -0.56205  -0.56131  -0.55035  -0.54989
 Alpha  occ. eigenvalues --   -0.51950  -0.51638  -0.47784  -0.47661  -0.46998
 Alpha  occ. eigenvalues --   -0.46920  -0.44626  -0.43860  -0.43578  -0.42890
 Alpha  occ. eigenvalues --   -0.42420  -0.42141  -0.41801  -0.41634  -0.40595
 Alpha  occ. eigenvalues --   -0.40159  -0.39975  -0.39681  -0.38819  -0.38815
 Alpha  occ. eigenvalues --   -0.38408  -0.37270  -0.37160  -0.36864  -0.36833
 Alpha  occ. eigenvalues --   -0.36680  -0.36527  -0.36249  -0.35593  -0.35296
 Alpha  occ. eigenvalues --   -0.34950  -0.34444  -0.33850  -0.33711  -0.33562
 Alpha  occ. eigenvalues --   -0.33408  -0.32692  -0.32488  -0.32354  -0.32231
 Alpha  occ. eigenvalues --   -0.32146  -0.31868  -0.31752  -0.31548  -0.30327
 Alpha  occ. eigenvalues --   -0.30044  -0.29704  -0.29027  -0.28803  -0.28632
 Alpha  occ. eigenvalues --   -0.28606  -0.28509  -0.28495  -0.28346  -0.28178
 Alpha  occ. eigenvalues --   -0.27450  -0.27301  -0.27152  -0.27148  -0.26886
 Alpha  occ. eigenvalues --   -0.26788  -0.25928  -0.25137  -0.24750  -0.24633
 Alpha  occ. eigenvalues --   -0.24384  -0.23549  -0.23314  -0.22021  -0.21693
 Alpha virt. eigenvalues --   -0.13417  -0.10605  -0.09437  -0.07779  -0.07438
 Alpha virt. eigenvalues --   -0.06910  -0.06195  -0.05863  -0.05004  -0.04700
 Alpha virt. eigenvalues --   -0.04250  -0.03532  -0.02930  -0.01862  -0.01643

 Mulliken charges:
               1
     1  P   -0.270622
     2  P   -0.463533
     3  C    0.095298
     4  C   -0.315930
     5  C   -0.554243
     6  C    0.374749
     7  C   -0.100965
     8  C   -0.128902
     9  C    0.360003
    10  C   -0.411880
    11  C   -0.475605
    12  C    0.036220
    13  C   -0.134346
    14  C   -0.057732
    15  H    0.095097
    16  H    0.089176
    17  H    0.145080
    18  H    0.125198
    19  H    0.135796
    20  H    0.139003
    21  H    0.131229
    22  H    0.143970
    23  H    0.104054
    24  H    0.116148
    25  H    0.138077
    26  H    0.134255
    27  H    0.136121
    28  H    0.144391
    29  H    0.125741
    30  H    0.119400
    31  Pt   0.823742
    32  Sn   0.270127
    33  Cl  -0.141111
    34  Cl  -0.190817
    35  Cl  -0.219136
    36  Sn   0.289444
    37  Cl  -0.203130
    38  Cl  -0.153998
    39  Cl  -0.234225
    40  C   -0.475408
    41  C    0.413828
    42  C    0.184111
    43  C   -0.102392
    44  H    0.106798
    45  C   -0.156674
    46  H    0.126822
    47  C   -0.590195
    48  H    0.151503
    49  H    0.147759
    50  H    0.153763
    51  C   -0.778747
    52  C    0.307608
    53  C    0.417761
    54  C   -0.097222
    55  H    0.120952
    56  C   -0.130264
    57  H    0.101114
    58  C   -0.565214
    59  H    0.152520
    60  H    0.145801
    61  H    0.149630
 Sum of Mulliken charges =   0.00000

 Dipole moment (field-independent basis, Debye):
    X=              0.2746    Y=              0.1346    Z=              1.2164  Tot=              1.2543
 Quadrupole moment (field-independent basis, Debye-Ang):
   XX=           -272.1075   YY=           -377.8770   ZZ=           -311.2550
   XY=             30.4656   XZ=             -7.0687   YZ=            -39.6038

 Normal termination of Gaussian 09 at Sat Aug 24 13:33:45 2019.
