 Gaussian 09, Revision D.01,
 Gaussian 09:  EM64L-G09RevD.01 24-Apr-2013

 ----------------------------------------------------------------------
 #PBEPBE/gen scf=(maxcycle=500,conver=4) NMR=GIAO Scrf=(solvent=Dichlor
 omethane)
 ----------------------------------------------------------------------

 ------------
 estrutura 63
 ------------
 Symbolic Z-matrix:
 Charge =  0 Multiplicity = 1

                         Standard orientation:
 ---------------------------------------------------------------------
 Center     Atomic      Atomic             Coordinates (Angstroms)
 Number     Number       Type             X           Y           Z
 ---------------------------------------------------------------------
      1         15           0        1.987818   -0.580344    0.332232
      2         15           0       -2.562143    0.623136   -0.545668
      3          6           0        3.172827    0.773348    0.510439
      4          6           0        3.679464    0.787705    1.765626
      5          6           0        3.198468   -0.340115    2.625657
      6          6           0        2.334517   -1.177534    2.002096
      7          6           0        4.653201    1.809565    2.274229
      8          6           0        3.646976   -0.483302    4.048682
      9          6           0       -2.873030    0.915357   -2.300923
     10          6           0       -3.806755    0.048153   -2.761943
     11          6           0       -4.373928   -0.847181   -1.707727
     12          6           0       -3.840371   -0.656258   -0.478168
     13          6           0       -4.270017   -0.031856   -4.186182
     14          6           0       -5.425191   -1.864707   -2.030058
     15          1           0        3.425564    1.478493   -0.279500
     16          1           0        1.866364   -2.056159    2.443654
     17          1           0        4.450756    2.076344    3.323023
     18          1           0        5.685455    1.418211    2.233303
     19          1           0        4.612218    2.726207    1.669211
     20          1           0        4.745698   -0.425284    4.131098
     21          1           0        3.239292    0.336140    4.667419
     22          1           0        3.309181   -1.437749    4.479901
     23          1           0       -2.340698    1.654376   -2.899164
     24          1           0       -4.113708   -1.217397    0.414791
     25          1           0       -4.314990   -1.073052   -4.534320
     26          1           0       -5.286255    0.380294   -4.286877
     27          1           0       -3.606578    0.528620   -4.855731
     28          1           0       -6.303718   -1.395574   -2.503455
     29          1           0       -5.032362   -2.610800   -2.742059
     30         78           0       -0.297935    0.015461   -0.085549
     31         50           0       -1.080010   -2.500998    0.355488
     32         17           0        0.545262   -4.163131    1.076862
     33         17           0       -1.919424   -3.678539   -1.580138
     34         17           0       -2.768050   -2.980327    2.028659
     35         50           0        0.510693    2.439248   -0.841790
     36         17           0        1.452795    3.975471    0.767861
     37         17           0       -1.038153    3.984850   -1.903328
     38         17           0        2.208280    2.420296   -2.575845
     39          6           0       -3.216032    2.071916    0.436296
     40          1           0       -2.809056    2.974720   -0.041496
     41          1           0       -4.304243    2.066302    0.255779
     42          6           0        2.620974   -1.797601   -0.945321
     43          1           0        2.290652   -2.780455   -0.579243
     44          1           0        2.060119   -1.581368   -1.865365
     45          6           0       -2.893306    2.054873    1.915653
     46          6           0       -3.264594    0.980902    2.743114
     47          6           0       -2.231937    3.149913    2.497156
     48          6           0       -2.981974    1.001742    4.110725
     49          1           0       -3.783546    0.114043    2.322980
     50          6           0       -1.956182    3.176219    3.868884
     51          1           0       -1.932610    3.994821    1.871186
     52          6           0       -2.329181    2.101886    4.680532
     53          1           0       -3.274868    0.153013    4.732766
     54          1           0       -1.447513    4.042748    4.301607
     55          1           0       -2.114566    2.121088    5.751362
     56          1           0       -5.753941   -2.396577   -1.126927
     57          6           0        4.106410   -1.759360   -1.196264
     58          6           0        4.606570   -1.110050   -2.337028
     59          6           0        5.015619   -2.370734   -0.313698
     60          6           0        5.981545   -1.073429   -2.591865
     61          1           0        3.910870   -0.629229   -3.030807
     62          6           0        6.391091   -2.322968   -0.563438
     63          1           0        4.644823   -2.889078    0.575109
     64          6           0        6.877618   -1.673365   -1.703316
     65          1           0        6.351159   -0.574008   -3.489897
     66          1           0        7.086772   -2.799041    0.133376
     67          1           0        7.950599   -1.635273   -1.900444
 ---------------------------------------------------------------------

 SCF Done:  E(RPBE-PBE) =  -33521.4479913     A.U. after   10 cycles

      1  P    Isotropic =   263.0262   Anisotropy =    49.4534

      2  P    Isotropic =   277.4400   Anisotropy =    75.3007

      3  C    Isotropic =    42.5457   Anisotropy =   125.9683

      4  C    Isotropic =    20.3601   Anisotropy =   154.8163

      5  C    Isotropic =    18.0956   Anisotropy =   157.4325

      6  C    Isotropic =    50.3559   Anisotropy =   112.3968

      7  C    Isotropic =   164.3827   Anisotropy =    32.2769

      8  C    Isotropic =   163.7215   Anisotropy =    30.3279

      9  C    Isotropic =    53.8538   Anisotropy =   107.2353

     10  C    Isotropic =    24.5623   Anisotropy =   168.0724

     11  C    Isotropic =    25.6316   Anisotropy =   173.4823

     12  C    Isotropic =    31.2999   Anisotropy =   131.5369

     13  C    Isotropic =   166.3614   Anisotropy =    31.9730

     14  C    Isotropic =   162.1992   Anisotropy =    33.1085

     15  H    Isotropic =    24.6022   Anisotropy =     8.6297

     16  H    Isotropic =    24.6997   Anisotropy =     9.2900

     17  H    Isotropic =    29.5788   Anisotropy =     7.5983

     18  H    Isotropic =    29.7988   Anisotropy =     9.9267

     19  H    Isotropic =    29.5587   Anisotropy =     4.9226

     20  H    Isotropic =    29.4567   Anisotropy =     9.2058

     21  H    Isotropic =    29.4426   Anisotropy =     7.8215

     22  H    Isotropic =    29.1841   Anisotropy =     6.6591

     23  H    Isotropic =    24.3556   Anisotropy =     9.9744

     24  H    Isotropic =    22.6591   Anisotropy =     7.2018

     25  H    Isotropic =    29.2987   Anisotropy =     7.0745

     26  H    Isotropic =    29.7503   Anisotropy =     9.4987

     27  H    Isotropic =    29.2193   Anisotropy =     6.4585

     28  H    Isotropic =    29.4791   Anisotropy =     9.7200

     29  H    Isotropic =    28.9667   Anisotropy =     6.0227

     30  Pt   Isotropic =  3670.9145   Anisotropy =  1348.2047

     31  Sn   Isotropic =  2133.7084   Anisotropy =   723.9547

     32  Cl   Isotropic =   720.7033   Anisotropy =   314.4111

     33  Cl   Isotropic =   763.8916   Anisotropy =   317.6021

     34  Cl   Isotropic =   709.0453   Anisotropy =   351.6574

     35  Sn   Isotropic =  2122.8831   Anisotropy =   728.1082

     36  Cl   Isotropic =   729.3696   Anisotropy =   333.7187

     37  Cl   Isotropic =   729.7621   Anisotropy =   301.5502

     38  Cl   Isotropic =   724.1285   Anisotropy =   338.2443

     39  C    Isotropic =   135.9314   Anisotropy =    21.6783

     40  H    Isotropic =    26.8883   Anisotropy =     7.9331

     41  H    Isotropic =    27.8758   Anisotropy =     8.8914

     42  C    Isotropic =   145.6899   Anisotropy =    53.3986

     43  H    Isotropic =    27.1247   Anisotropy =     8.4765

     44  H    Isotropic =    28.0439   Anisotropy =     8.1696

     45  C    Isotropic =    44.6652   Anisotropy =   190.4869

     46  C    Isotropic =    50.1557   Anisotropy =   178.3067

     47  C    Isotropic =    48.4422   Anisotropy =   165.5435

     48  C    Isotropic =    49.2033   Anisotropy =   186.4506

     49  H    Isotropic =    23.3688   Anisotropy =     8.6100

     50  C    Isotropic =    50.4954   Anisotropy =   181.0346

     51  H    Isotropic =    24.0362   Anisotropy =     8.0903

     52  C    Isotropic =    48.2616   Anisotropy =   175.7617

     53  H    Isotropic =    23.7935   Anisotropy =     6.9312

     54  H    Isotropic =    24.2488   Anisotropy =     5.5046

     55  H    Isotropic =    24.2847   Anisotropy =     2.7339

     56  H    Isotropic =    29.2319   Anisotropy =     5.7853

     57  C    Isotropic =    36.5056   Anisotropy =   161.8359

     58  C    Isotropic =    46.5180   Anisotropy =   158.2527

     59  C    Isotropic =    50.0864   Anisotropy =   167.9670

     60  C    Isotropic =    45.4725   Anisotropy =   184.1968

     61  H    Isotropic =    24.2903   Anisotropy =    10.3216

     62  C    Isotropic =    41.7624   Anisotropy =   176.6740

     63  H    Isotropic =    24.1943   Anisotropy =    11.7481

     64  C    Isotropic =    51.1823   Anisotropy =   220.2776

     65  H    Isotropic =    22.2894   Anisotropy =     9.2362

     66  H    Isotropic =    22.0974   Anisotropy =     9.1402

     67  H    Isotropic =    21.0414   Anisotropy =     7.8496

 The electronic state is 1-A.
 Alpha  occ. eigenvalues -- ******************************-427.56110-414.89169
 Alpha  occ. eigenvalues -- -414.89099-414.88841-149.67034-149.66997-141.94847
 Alpha  occ. eigenvalues -- -141.94839-141.94810-141.94802-141.94777-141.94741
 Alpha  occ. eigenvalues -- -100.56720-100.56700-100.56689-100.56581-100.56559
 Alpha  occ. eigenvalues -- -100.56546 -99.94157 -92.10023 -92.09921 -92.09503
 Alpha  occ. eigenvalues --  -79.05900 -79.05800 -79.05562 -79.05511 -79.05440
 Alpha  occ. eigenvalues --  -76.32572 -76.32514 -28.83415 -28.83371 -25.18050
 Alpha  occ. eigenvalues --  -25.18029 -25.18008 -25.17983 -25.17829 -25.17787
 Alpha  occ. eigenvalues --  -20.85634 -17.72934 -17.72933 -17.72890 -17.72890
 Alpha  occ. eigenvalues --  -17.72799 -17.72786 -17.72758 -17.72748 -17.72743
 Alpha  occ. eigenvalues --  -17.72706 -17.42497 -17.42293 -17.41427 -11.60859
 Alpha  occ. eigenvalues --  -11.60507 -11.60005 -11.59911 -11.59751  -9.93397
 Alpha  occ. eigenvalues --   -9.93260  -9.93231  -9.92996  -9.92739  -9.92709
 Alpha  occ. eigenvalues --   -9.92254  -9.91993  -9.91087  -9.91015  -9.90785
 Alpha  occ. eigenvalues --   -9.90742  -9.90441  -9.90425  -9.90358  -9.90344
 Alpha  occ. eigenvalues --   -9.90226  -9.90218  -9.90162  -9.90074  -9.90001
 Alpha  occ. eigenvalues --   -9.89857  -9.89824  -9.89751  -9.89704  -9.89533
 Alpha  occ. eigenvalues --   -9.14590  -9.14577  -9.14570  -9.14449  -9.14429
 Alpha  occ. eigenvalues --   -9.14428  -6.98384  -6.98377  -6.98356  -6.98257
 Alpha  occ. eigenvalues --   -6.98232  -6.98211  -6.97778  -6.97761  -6.97761
 Alpha  occ. eigenvalues --   -6.97759  -6.97745  -6.97745  -6.97634  -6.97619
 Alpha  occ. eigenvalues --   -6.97614  -6.97610  -6.97607  -6.97590  -6.35548
 Alpha  occ. eigenvalues --   -6.35486  -4.58064  -4.58047  -4.58005  -4.57983
 Alpha  occ. eigenvalues --   -4.57863  -4.57801  -4.52130  -4.52077  -3.25573
 Alpha  occ. eigenvalues --   -3.25527  -3.25518  -3.25472  -3.25193  -3.25142
 Alpha  occ. eigenvalues --   -3.15749  -3.15720  -3.15224  -3.14973  -3.14781
 Alpha  occ. eigenvalues --   -3.14696  -3.14632  -2.88604  -1.83805  -1.83330
 Alpha  occ. eigenvalues --   -1.80876  -1.04618  -1.04614  -1.04563  -1.04553
 Alpha  occ. eigenvalues --   -1.04248  -1.04210  -1.04185  -1.04167  -1.04157
 Alpha  occ. eigenvalues --   -1.04084  -0.80072  -0.79926  -0.79247  -0.78931
 Alpha  occ. eigenvalues --   -0.73469  -0.73410  -0.72562  -0.72421  -0.71796
 Alpha  occ. eigenvalues --   -0.71757  -0.71688  -0.71617  -0.70199  -0.70070
 Alpha  occ. eigenvalues --   -0.68589  -0.68410  -0.68259  -0.68160  -0.64176
 Alpha  occ. eigenvalues --   -0.64139  -0.61982  -0.61847  -0.57952  -0.57542
 Alpha  occ. eigenvalues --   -0.55519  -0.55359  -0.53751  -0.53728  -0.51622
 Alpha  occ. eigenvalues --   -0.51118  -0.47492  -0.47200  -0.46733  -0.46573
 Alpha  occ. eigenvalues --   -0.44698  -0.43895  -0.43500  -0.42897  -0.42764
 Alpha  occ. eigenvalues --   -0.42672  -0.41818  -0.41452  -0.40857  -0.40384
 Alpha  occ. eigenvalues --   -0.40184  -0.39926  -0.38607  -0.38333  -0.38213
 Alpha  occ. eigenvalues --   -0.38038  -0.37871  -0.37546  -0.37230  -0.36849
 Alpha  occ. eigenvalues --   -0.36839  -0.36779  -0.36729  -0.36218  -0.35866
 Alpha  occ. eigenvalues --   -0.35757  -0.34891  -0.34282  -0.33763  -0.33683
 Alpha  occ. eigenvalues --   -0.33512  -0.33419  -0.33109  -0.32757  -0.32520
 Alpha  occ. eigenvalues --   -0.32355  -0.32188  -0.31990  -0.31644  -0.31093
 Alpha  occ. eigenvalues --   -0.30772  -0.30513  -0.30135  -0.29701  -0.29474
 Alpha  occ. eigenvalues --   -0.28988  -0.28699  -0.28620  -0.28613  -0.28452
 Alpha  occ. eigenvalues --   -0.28405  -0.28335  -0.28090  -0.27383  -0.27282
 Alpha  occ. eigenvalues --   -0.27114  -0.26994  -0.26925  -0.26803  -0.25447
 Alpha  occ. eigenvalues --   -0.24024  -0.23778  -0.23746  -0.23491  -0.23287
 Alpha  occ. eigenvalues --   -0.22875  -0.22183  -0.21671
 Alpha virt. eigenvalues --   -0.13305  -0.10569  -0.09558  -0.07197  -0.06112
 Alpha virt. eigenvalues --   -0.05723  -0.05437  -0.05292  -0.05146  -0.04653
 Alpha virt. eigenvalues --   -0.04334  -0.03721  -0.02811  -0.01883  -0.01499

 Mulliken charges:
               1
     1  P   -1.007022
     2  P   -0.633198
     3  C    0.404165
     4  C   -0.429675
     5  C   -0.481923
     6  C    0.435121
     7  C   -0.085007
     8  C   -0.129729
     9  C    0.257044
    10  C   -0.615687
    11  C   -0.268000
    12  C    0.034274
    13  C   -0.115509
    14  C   -0.061406
    15  H    0.081909
    16  H    0.102876
    17  H    0.128534
    18  H    0.137309
    19  H    0.121594
    20  H    0.143035
    21  H    0.140551
    22  H    0.128937
    23  H    0.107108
    24  H    0.098943
    25  H    0.132898
    26  H    0.142390
    27  H    0.131281
    28  H    0.146704
    29  H    0.126231
    30  Pt   0.961384
    31  Sn   0.309978
    32  Cl  -0.153164
    33  Cl  -0.209026
    34  Cl  -0.225157
    35  Sn   0.256151
    36  Cl  -0.203385
    37  Cl  -0.166559
    38  Cl  -0.231462
    39  C    0.185634
    40  H    0.064912
    41  H    0.121252
    42  C    0.307881
    43  H    0.069312
    44  H    0.067668
    45  C   -0.362624
    46  C   -0.024957
    47  C   -0.056098
    48  C    0.053142
    49  H    0.103594
    50  C   -0.138998
    51  H    0.114818
    52  C   -0.378193
    53  H    0.143786
    54  H    0.149076
    55  H    0.156367
    56  H    0.121331
    57  C   -0.437355
    58  C   -0.008283
    59  C    0.053156
    60  C   -0.148549
    61  H    0.120164
    62  C   -0.038594
    63  H    0.117410
    64  C   -0.333397
    65  H    0.152930
    66  H    0.149825
    67  H    0.162288
 Sum of Mulliken charges =   0.00000

 Dipole moment (field-independent basis, Debye):
    X=             -0.0829    Y=              0.7181    Z=              2.0599  Tot=              2.1830
 Quadrupole moment (field-independent basis, Debye-Ang):
   XX=           -289.9415   YY=           -402.7508   ZZ=           -320.7628
   XY=            -15.3751   XZ=             29.6700   YZ=             15.0420

 Normal termination of Gaussian 09 at Sat Aug 24 20:42:27 2019.
