 Gaussian 09, Revision D.01,
 Gaussian 09:  EM64L-G09RevD.01 24-Apr-2013

 ----------------------------------------------------------------------
 #PBEPBE/gen scf=(maxcycle=500,conver=4) NMR=GIAO scrf=(solvent=dichlor
 omethane)
 ----------------------------------------------------------------------

 ------------
 estrutura 17
 ------------
 Symbolic Z-matrix:
 Charge =  0 Multiplicity = 1

                         Standard orientation:
 ---------------------------------------------------------------------
 Center     Atomic      Atomic             Coordinates (Angstroms)
 Number     Number       Type             X           Y           Z
 ---------------------------------------------------------------------
      1         78           0       -0.017368    0.025000    0.065438
      2         50           0        2.016637   -1.667429   -0.367488
      3         50           0       -2.010810    1.699487   -0.443625
      4         17           0        1.731123   -4.074047   -0.418673
      5         17           0        2.843505   -1.395696   -2.627487
      6         17           0        4.045854   -1.560793    0.948456
      7         17           0       -3.829553    0.710909   -1.715958
      8         17           0       -3.216467    2.729995    1.381261
      9         17           0       -1.682730    3.582547   -1.918012
     10          8           0        0.943399    3.236679    0.152061
     11          8           0       -1.793020   -2.601239   -1.015875
     12          8           0       -2.930949   -1.328763    0.946283
     13          8           0       -0.836322   -2.740467    1.413436
     14          8           0        1.905130    1.661854    1.962469
     15         15           0        1.514631    1.748004    0.400811
     16          6           0        1.341781    4.432726    0.879544
     17          1           0        2.441298    4.517448    0.873343
     18          1           0        1.007006    4.319855    1.923434
     19          6           0        0.702028    5.635671    0.217483
     20          1           0       -0.393979    5.539432    0.203254
     21          1           0        0.970854    6.543856    0.779089
     22          1           0        1.054422    5.749777   -0.819765
     23          6           0        3.593708    2.655505   -1.181498
     24          1           0        4.028454    3.394024   -0.488696
     25          1           0        2.856121    3.166773   -1.818100
     26          6           0        3.199009    1.880005    2.587807
     27          1           0        3.266225    2.948560    2.856010
     28          1           0        3.989356    1.644676    1.857760
     29          6           0        3.298539    0.998284    3.814100
     30          1           0        3.278246   -0.061324    3.524692
     31          1           0        4.249774    1.200510    4.330998
     32          1           0        2.476629    1.196652    4.516609
     33          6           0       -4.240022   -1.870257    0.612340
     34          1           0       -4.281488   -2.925008    0.929425
     35          1           0       -4.366803   -1.818441   -0.478984
     36          6           0       -5.288581   -1.044278    1.326870
     37          1           0       -5.234547    0.007737    1.010470
     38          1           0       -6.289128   -1.432978    1.077959
     39          1           0       -5.158108   -1.093978    2.419423
     40          6           0       -1.984958   -4.037621   -1.132264
     41          1           0       -2.939954   -4.310041   -0.652230
     42          1           0       -1.159454   -4.538073   -0.605348
     43          6           0       -1.993834   -4.397863   -2.601855
     44          1           0       -2.147961   -5.482843   -2.711572
     45          1           0       -2.804340   -3.878773   -3.130715
     46          1           0       -1.037063   -4.132215   -3.071606
     47          6           0       -1.501019   -3.600978    2.374287
     48          1           0       -0.850824   -4.485448    2.452841
     49          1           0       -2.472528   -3.931354    1.973892
     50          6           0       -1.656705   -2.905710    3.713732
     51          1           0       -2.327536   -2.036306    3.632703
     52          1           0       -2.082899   -3.607889    4.447331
     53          1           0       -0.679585   -2.565274    4.092059
     54         15           0       -1.497529   -1.753030    0.321711
     55          8           0        2.909615    1.635048   -0.404358
     56          6           0        4.669870    1.981486   -2.002895
     57          1           0        5.200541    2.738889   -2.600823
     58          1           0        5.399772    1.476187   -1.352384
     59          1           0        4.233144    1.231792   -2.678393
 ---------------------------------------------------------------------

 SCF Done:  E(RPBE-PBE) =  -33439.6047158     A.U. after    9 cycles

      1  Pt   Isotropic =  3243.9442   Anisotropy =  1716.0894

      2  Sn   Isotropic =  2146.9197   Anisotropy =   668.8894

      3  Sn   Isotropic =  2159.5182   Anisotropy =   687.4379

      4  Cl   Isotropic =   730.7117   Anisotropy =   361.1136

      5  Cl   Isotropic =   757.5285   Anisotropy =   317.3599

      6  Cl   Isotropic =   737.7227   Anisotropy =   362.6521

      7  Cl   Isotropic =   731.3768   Anisotropy =   368.4217

      8  Cl   Isotropic =   768.7098   Anisotropy =   335.5701

      9  Cl   Isotropic =   720.1787   Anisotropy =   352.6528

     10  O    Isotropic =   150.1093   Anisotropy =   139.7491

     11  O    Isotropic =   166.5869   Anisotropy =   118.8951

     12  O    Isotropic =   155.5696   Anisotropy =   161.0346

     13  O    Isotropic =   148.9348   Anisotropy =    67.9021

     14  O    Isotropic =   176.4255   Anisotropy =    85.3341

     15  P    Isotropic =   164.2491   Anisotropy =   168.7878

     16  C    Isotropic =   109.7357   Anisotropy =    80.0516

     17  H    Isotropic =    27.3187   Anisotropy =     7.7712

     18  H    Isotropic =    26.7683   Anisotropy =     7.6238

     19  C    Isotropic =   165.6114   Anisotropy =    22.6156

     20  H    Isotropic =    29.6652   Anisotropy =     5.7671

     21  H    Isotropic =    30.3299   Anisotropy =    12.1544

     22  H    Isotropic =    29.9426   Anisotropy =     6.4227

     23  C    Isotropic =   110.4043   Anisotropy =    83.2152

     24  H    Isotropic =    27.1889   Anisotropy =     8.5547

     25  H    Isotropic =    26.6810   Anisotropy =     7.2422

     26  C    Isotropic =   111.9577   Anisotropy =    82.7897

     27  H    Isotropic =    27.3173   Anisotropy =     8.8403

     28  H    Isotropic =    26.4922   Anisotropy =     6.4001

     29  C    Isotropic =   165.9103   Anisotropy =    27.2139

     30  H    Isotropic =    29.7175   Anisotropy =     6.4022

     31  H    Isotropic =    30.3748   Anisotropy =    12.1478

     32  H    Isotropic =    30.0488   Anisotropy =     7.5723

     33  C    Isotropic =   109.0162   Anisotropy =    82.4694

     34  H    Isotropic =    27.1442   Anisotropy =     8.0287

     35  H    Isotropic =    26.3341   Anisotropy =     5.3900

     36  C    Isotropic =   164.4754   Anisotropy =    27.7543

     37  H    Isotropic =    29.6266   Anisotropy =     6.7901

     38  H    Isotropic =    30.3159   Anisotropy =    12.3078

     39  H    Isotropic =    29.9585   Anisotropy =     7.6439

     40  C    Isotropic =   110.2674   Anisotropy =    82.2606

     41  H    Isotropic =    27.1261   Anisotropy =     8.2396

     42  H    Isotropic =    26.5229   Anisotropy =     5.4404

     43  C    Isotropic =   165.8419   Anisotropy =    29.3784

     44  H    Isotropic =    30.2846   Anisotropy =    12.2072

     45  H    Isotropic =    29.9911   Anisotropy =     7.6838

     46  H    Isotropic =    30.0405   Anisotropy =     4.8049

     47  C    Isotropic =   109.2951   Anisotropy =    83.7097

     48  H    Isotropic =    27.0265   Anisotropy =     8.8480

     49  H    Isotropic =    26.8867   Anisotropy =     8.3012

     50  C    Isotropic =   163.2301   Anisotropy =    29.8158

     51  H    Isotropic =    29.7384   Anisotropy =     4.0651

     52  H    Isotropic =    30.2641   Anisotropy =    12.4999

     53  H    Isotropic =    29.9614   Anisotropy =     5.5600

     54  P    Isotropic =   161.7806   Anisotropy =   164.3808

     55  O    Isotropic =   161.9978   Anisotropy =   141.2285

     56  C    Isotropic =   166.2463   Anisotropy =    22.6512

     57  H    Isotropic =    30.2866   Anisotropy =    12.2913

     58  H    Isotropic =    29.9505   Anisotropy =     6.1494

     59  H    Isotropic =    29.4913   Anisotropy =     6.8484

 The electronic state is 1-A.
 Alpha  occ. eigenvalues -- ******************************-427.57050-414.90110
 Alpha  occ. eigenvalues -- -414.90009-414.89767-149.66721-149.66720-141.94532
 Alpha  occ. eigenvalues -- -141.94532-141.94526-141.94524-141.94466-141.94463
 Alpha  occ. eigenvalues -- -100.56635-100.56464-100.56302-100.56286-100.56215
 Alpha  occ. eigenvalues -- -100.56177 -99.95097 -92.10986 -92.10824 -92.10450
 Alpha  occ. eigenvalues --  -79.06842 -79.06739 -79.06528 -79.06437 -79.06382
 Alpha  occ. eigenvalues --  -76.41170 -76.41030 -28.83115 -28.83109 -25.17750
 Alpha  occ. eigenvalues --  -25.17739 -25.17726 -25.17721 -25.17528 -25.17527
 Alpha  occ. eigenvalues --  -20.86560 -18.80135 -18.79988 -18.79965 -18.79902
 Alpha  occ. eigenvalues --  -18.79863 -18.79721 -17.72631 -17.72631 -17.72623
 Alpha  occ. eigenvalues --  -17.72623 -17.72497 -17.72492 -17.72483 -17.72482
 Alpha  occ. eigenvalues --  -17.72445 -17.72444 -17.43478 -17.43148 -17.42365
 Alpha  occ. eigenvalues --  -11.61786 -11.61427 -11.60989 -11.60797 -11.60671
 Alpha  occ. eigenvalues --   -9.96210  -9.96166  -9.96077  -9.95936  -9.95899
 Alpha  occ. eigenvalues --   -9.95867  -9.89114  -9.88963  -9.88896  -9.88847
 Alpha  occ. eigenvalues --   -9.88826  -9.88749  -9.14470  -9.14308  -9.14149
 Alpha  occ. eigenvalues --   -9.14140  -9.14062  -9.14029  -6.98274  -6.98112
 Alpha  occ. eigenvalues --   -6.97951  -6.97946  -6.97883  -6.97828  -6.97657
 Alpha  occ. eigenvalues --   -6.97641  -6.97497  -6.97477  -6.97337  -6.97327
 Alpha  occ. eigenvalues --   -6.97319  -6.97304  -6.97254  -6.97220  -6.97210
 Alpha  occ. eigenvalues --   -6.97198  -6.43112  -6.42983  -4.65829  -4.65805
 Alpha  occ. eigenvalues --   -4.65700  -4.65680  -4.65261  -4.65125  -4.51845
 Alpha  occ. eigenvalues --   -4.51828  -3.25282  -3.25258  -3.25242  -3.25226
 Alpha  occ. eigenvalues --   -3.24920  -3.24904  -3.16681  -3.16641  -3.16181
 Alpha  occ. eigenvalues --   -3.15909  -3.15754  -3.15582  -3.15542  -2.89556
 Alpha  occ. eigenvalues --   -1.85007  -1.84087  -1.81801  -1.04339  -1.04314
 Alpha  occ. eigenvalues --   -1.04310  -1.04300  -1.03977  -1.03951  -1.03924
 Alpha  occ. eigenvalues --   -1.03912  -1.03889  -1.03836  -1.01039  -1.01011
 Alpha  occ. eigenvalues --   -0.96045  -0.95878  -0.95776  -0.95768  -0.73071
 Alpha  occ. eigenvalues --   -0.73052  -0.72631  -0.72532  -0.71519  -0.71458
 Alpha  occ. eigenvalues --   -0.71284  -0.71179  -0.70031  -0.70027  -0.69970
 Alpha  occ. eigenvalues --   -0.69947  -0.61973  -0.61462  -0.58223  -0.57863
 Alpha  occ. eigenvalues --   -0.57787  -0.57684  -0.53677  -0.53500  -0.49313
 Alpha  occ. eigenvalues --   -0.49231  -0.48995  -0.48610  -0.46386  -0.44935
 Alpha  occ. eigenvalues --   -0.44033  -0.43878  -0.43600  -0.43402  -0.42959
 Alpha  occ. eigenvalues --   -0.42733  -0.42564  -0.41620  -0.39298  -0.39068
 Alpha  occ. eigenvalues --   -0.38798  -0.38648  -0.38447  -0.36394  -0.36197
 Alpha  occ. eigenvalues --   -0.35848  -0.35621  -0.35377  -0.35347  -0.34796
 Alpha  occ. eigenvalues --   -0.34513  -0.34211  -0.34188  -0.33974  -0.33757
 Alpha  occ. eigenvalues --   -0.33539  -0.33462  -0.33375  -0.33298  -0.33138
 Alpha  occ. eigenvalues --   -0.32697  -0.32610  -0.31738  -0.31608  -0.30862
 Alpha  occ. eigenvalues --   -0.30737  -0.30477  -0.30447  -0.30176  -0.29716
 Alpha  occ. eigenvalues --   -0.29040  -0.28576  -0.28397  -0.28318  -0.28276
 Alpha  occ. eigenvalues --   -0.28157  -0.27942  -0.27682  -0.27455  -0.27288
 Alpha  occ. eigenvalues --   -0.27154  -0.27011  -0.26977  -0.26818  -0.26696
 Alpha  occ. eigenvalues --   -0.26280  -0.26107  -0.24615  -0.23863  -0.22432
 Alpha virt. eigenvalues --   -0.13066  -0.08685  -0.05470  -0.04809  -0.04131
 Alpha virt. eigenvalues --   -0.03301  -0.03220  -0.02114  -0.02041  -0.01626
 Alpha virt. eigenvalues --   -0.01309  -0.00787  -0.00521  -0.00328  -0.00130

 Mulliken charges:
               1
     1  Pt  -0.314620
     2  Sn   0.245175
     3  Sn   0.252428
     4  Cl  -0.172199
     5  Cl  -0.241075
     6  Cl  -0.219315
     7  Cl  -0.215216
     8  Cl  -0.196791
     9  Cl  -0.162293
    10  O   -0.111370
    11  O   -0.104979
    12  O   -0.126504
    13  O   -0.147760
    14  O   -0.103088
    15  P   -0.120623
    16  C   -0.027547
    17  H    0.094047
    18  H    0.114723
    19  C   -0.232273
    20  H    0.114670
    21  H    0.147236
    22  H    0.129961
    23  C   -0.127856
    24  H    0.108962
    25  H    0.107541
    26  C   -0.073539
    27  H    0.114327
    28  H    0.098486
    29  C   -0.225699
    30  H    0.110029
    31  H    0.147901
    32  H    0.129726
    33  C   -0.053823
    34  H    0.098177
    35  H    0.106377
    36  C   -0.192698
    37  H    0.103899
    38  H    0.141780
    39  H    0.124794
    40  C   -0.059645
    41  H    0.100297
    42  H    0.106643
    43  C   -0.228555
    44  H    0.149494
    45  H    0.133414
    46  H    0.118094
    47  C   -0.026003
    48  H    0.132047
    49  H    0.087054
    50  C   -0.246578
    51  H    0.112751
    52  H    0.149247
    53  H    0.116538
    54  P   -0.030968
    55  O   -0.115891
    56  C   -0.200603
    57  H    0.150681
    58  H    0.121850
    59  H    0.109163
 Sum of Mulliken charges =   0.00000

 Dipole moment (field-independent basis, Debye):
    X=              0.7058    Y=              0.0029    Z=              7.7586  Tot=              7.7906
 Quadrupole moment (field-independent basis, Debye-Ang):
   XX=           -303.7006   YY=           -276.1450   ZZ=           -297.3767
   XY=             77.5043   XZ=             -1.1995   YZ=             -0.1538

 Normal termination of Gaussian 09 at Mon Mar 18 14:46:52 2019.
