 Gaussian 09, Revision D.01,
 Gaussian 09:  EM64L-G09RevD.01 24-Apr-2013

 ----------------------------------------------------------------------
 #PBEPBE/gen scf=(maxcycle=500,conver=4) NMR=GIAO Scrf=(solvent=Dichlor
 omethane)
 ----------------------------------------------------------------------

 ------------
 estrutura 29
 ------------
 Symbolic Z-matrix:
 Charge = -1 Multiplicity = 1

                         Standard orientation:
 ---------------------------------------------------------------------
 Center     Atomic      Atomic             Coordinates (Angstroms)
 Number     Number       Type             X           Y           Z
 ---------------------------------------------------------------------
      1         78           0       -0.184456   -1.096361   -0.057210
      2         17           0       -1.868377   -2.827601   -0.345423
      3         17           0        1.605212   -2.759027    0.045167
      4         50           0        1.817905    0.515902    0.052120
      5         17           0        2.842472    0.954228    2.206099
      6         17           0        3.799584    0.105926   -1.267861
      7         17           0        1.502405    2.835570   -0.701533
      8         33           0       -1.902841    0.576187   -0.092069
      9          6           0       -3.716713   -0.069399    0.313556
     10          1           0       -4.393694    0.786246    0.164163
     11          1           0       -3.935856   -0.820362   -0.458304
     12          6           0       -3.865943   -0.669288    1.710888
     13          1           0       -4.907722   -0.991468    1.873429
     14          1           0       -3.218441   -1.550221    1.824294
     15          1           0       -3.617008    0.051278    2.505907
     16          6           0       -1.614053    2.055765    1.188718
     17          1           0       -1.233653    1.566007    2.098822
     18          6           0       -2.018849    1.356084   -1.900261
     19          1           0       -2.113236    0.478470   -2.559485
     20          1           0       -1.018769    1.781394   -2.076723
     21          6           0       -3.119122    2.379353   -2.178831
     22          1           0       -3.105509    2.656756   -3.245701
     23          1           0       -4.123684    1.986042   -1.957457
     24          1           0       -2.978720    3.305212   -1.600815
     25          6           0       -2.815573    2.946438    1.505600
     26          1           0       -3.205573    3.456189    0.612578
     27          1           0       -3.644712    2.385601    1.962655
     28          1           0       -2.516250    3.727189    2.224035
     29          1           0       -0.781556    2.640171    0.769635
 ---------------------------------------------------------------------

 SCF Done:  E(RPBE-PBE) =  -27859.7854700     A.U. after    9 cycles

      1  Pt   Isotropic =  2824.1262   Anisotropy =  2367.0981

      2  Cl   Isotropic =   920.7452   Anisotropy =   207.6616

      3  Cl   Isotropic =  1026.1585   Anisotropy =   500.5275

      4  Sn   Isotropic =  2148.4483   Anisotropy =   907.8157

      5  Cl   Isotropic =   762.8734   Anisotropy =   353.8529

      6  Cl   Isotropic =   763.1035   Anisotropy =   327.6001

      7  Cl   Isotropic =   734.8341   Anisotropy =   325.8586

      8  As   Isotropic =   946.1972   Anisotropy =   251.1045

      9  C    Isotropic =   162.3773   Anisotropy =    18.7182

     10  H    Isotropic =    29.1266   Anisotropy =     9.8401

     11  H    Isotropic =    28.9234   Anisotropy =     7.8732

     12  C    Isotropic =   173.2212   Anisotropy =    20.3468

     13  H    Isotropic =    30.1864   Anisotropy =    13.8538

     14  H    Isotropic =    29.4557   Anisotropy =     6.4371

     15  H    Isotropic =    30.5338   Anisotropy =     8.5981

     16  C    Isotropic =   150.7321   Anisotropy =    45.3850

     17  H    Isotropic =    29.2127   Anisotropy =     5.8950

     18  C    Isotropic =   148.4583   Anisotropy =    42.5776

     19  H    Isotropic =    29.3506   Anisotropy =     7.9946

     20  H    Isotropic =    28.8561   Anisotropy =     6.5225

     21  C    Isotropic =   171.0896   Anisotropy =    23.3709

     22  H    Isotropic =    30.1631   Anisotropy =    13.0886

     23  H    Isotropic =    30.2241   Anisotropy =     8.7357

     24  H    Isotropic =    30.1296   Anisotropy =     8.1818

     25  C    Isotropic =   170.3296   Anisotropy =    25.8147

     26  H    Isotropic =    30.2438   Anisotropy =     8.4649

     27  H    Isotropic =    30.1121   Anisotropy =     8.4909

     28  H    Isotropic =    30.0902   Anisotropy =    13.0647

     29  H    Isotropic =    28.2633   Anisotropy =    10.6072

 The electronic state is 1-A.
 Alpha  occ. eigenvalues -- ********************-427.51906-422.27167-414.84945
 Alpha  occ. eigenvalues -- -414.84898-414.84609-149.65045-141.92872-141.92860
 Alpha  occ. eigenvalues -- -141.92788-100.55145-100.55019-100.54735-100.51543
 Alpha  occ. eigenvalues -- -100.50841 -99.89973 -92.05833 -92.05753 -92.05297
 Alpha  occ. eigenvalues --  -79.01740 -79.01603 -79.01355 -79.01317 -79.01245
 Alpha  occ. eigenvalues --  -52.98881 -47.58139 -47.58134 -47.58077 -28.81366
 Alpha  occ. eigenvalues --  -25.16026 -25.15986 -25.15753 -20.81460 -17.70914
 Alpha  occ. eigenvalues --  -17.70912 -17.70756 -17.70728 -17.70690 -17.38317
 Alpha  occ. eigenvalues --  -17.38163 -17.37203 -11.56787 -11.56294 -11.55785
 Alpha  occ. eigenvalues --  -11.55718 -11.55563  -9.90331  -9.90150  -9.90046
 Alpha  occ. eigenvalues --   -9.88504  -9.88421  -9.87828  -9.12976  -9.12849
 Alpha  occ. eigenvalues --   -9.12586  -9.09309  -9.08664  -6.96772  -6.96664
 Alpha  occ. eigenvalues --   -6.96347  -6.96169  -6.96154  -6.96039  -6.96008
 Alpha  occ. eigenvalues --   -6.95794  -6.95779  -6.93061  -6.92540  -6.92511
 Alpha  occ. eigenvalues --   -6.92405  -6.91910  -6.91846  -6.71092  -4.83909
 Alpha  occ. eigenvalues --   -4.83892  -4.83736  -4.50025  -3.23485  -3.23434
 Alpha  occ. eigenvalues --   -3.23051  -3.11624  -3.11599  -3.11075  -3.10728
 Alpha  occ. eigenvalues --   -3.10558  -3.10505  -3.10438  -2.84427  -1.79591
 Alpha  occ. eigenvalues --   -1.79289  -1.76613  -1.51759  -1.51745  -1.51608
 Alpha  occ. eigenvalues --   -1.51586  -1.51576  -1.02515  -1.02475  -1.02148
 Alpha  occ. eigenvalues --   -1.02081  -1.02036  -0.71727  -0.71526  -0.70055
 Alpha  occ. eigenvalues --   -0.69813  -0.68604  -0.68229  -0.66683  -0.65984
 Alpha  occ. eigenvalues --   -0.60040  -0.55589  -0.55255  -0.48298  -0.41465
 Alpha  occ. eigenvalues --   -0.41169  -0.40861  -0.39645  -0.37376  -0.37164
 Alpha  occ. eigenvalues --   -0.36394  -0.34459  -0.33879  -0.33311  -0.32620
 Alpha  occ. eigenvalues --   -0.32170  -0.31850  -0.31720  -0.31273  -0.30892
 Alpha  occ. eigenvalues --   -0.30215  -0.29006  -0.27914  -0.27509  -0.26949
 Alpha  occ. eigenvalues --   -0.26933  -0.26417  -0.26136  -0.25726  -0.25499
 Alpha  occ. eigenvalues --   -0.25344  -0.24962  -0.24448  -0.22822  -0.21214
 Alpha  occ. eigenvalues --   -0.20672  -0.20565  -0.20460  -0.19886
 Alpha virt. eigenvalues --   -0.10340  -0.04153  -0.02639  -0.02023  -0.01273
 Alpha virt. eigenvalues --    0.00029   0.00183   0.00552   0.01480   0.01802
 Alpha virt. eigenvalues --    0.02140   0.02539   0.02751   0.03620   0.04446

 Mulliken charges:
               1
     1  Pt   0.107078
     2  Cl  -0.555329
     3  Cl  -0.575560
     4  Sn   0.332837
     5  Cl  -0.255209
     6  Cl  -0.224421
     7  Cl  -0.284898
     8  As   0.277898
     9  C   -0.503780
    10  H    0.158042
    11  H    0.161890
    12  C   -0.129260
    13  H    0.145163
    14  H    0.108605
    15  H    0.113387
    16  C   -0.472829
    17  H    0.141421
    18  C   -0.414445
    19  H    0.145585
    20  H    0.152078
    21  C   -0.193809
    22  H    0.149596
    23  H    0.120606
    24  H    0.114396
    25  C   -0.124565
    26  H    0.112251
    27  H    0.112140
    28  H    0.143577
    29  H    0.137554
 Sum of Mulliken charges =  -1.00000

 Dipole moment (field-independent basis, Debye):
    X=            -13.2487    Y=             10.1381    Z=              0.2354  Tot=             16.6842
 Quadrupole moment (field-independent basis, Debye-Ang):
   XX=           -209.4784   YY=           -226.5671   ZZ=           -185.6921
   XY=            -16.7417   XZ=             -1.7390   YZ=             -2.2868

 Normal termination of Gaussian 09 at Tue Feb  4 09:32:02 2020.
