 Gaussian 09, Revision D.01,
 Gaussian 09:  EM64L-G09RevD.01 24-Apr-2013

 ----------------------------------------------------------------------
 #PBEPBE/gen scf=(maxcycle=500,conver=4) NMR=GIAO Scrf=(solvent=Dichlor
 omethane)
 ----------------------------------------------------------------------

 ------------
 estrutura 80
 ------------
 Symbolic Z-matrix:
 Charge =  0 Multiplicity = 1

                         Standard orientation:
 ---------------------------------------------------------------------
 Center     Atomic      Atomic             Coordinates (Angstroms)
 Number     Number       Type             X           Y           Z
 ---------------------------------------------------------------------
      1         78           0       -0.060383   -0.038604    0.230592
      2         15           0       -0.214369    2.368733    0.290604
      3         15           0        0.157659   -2.428419    0.163637
      4          6           0       -0.182858    3.019615   -1.443424
      5          1           0       -0.975506    2.466455   -1.971817
      6          1           0        0.772458    2.669977   -1.870092
      7          6           0       -0.355345    4.526966   -1.653406
      8          1           0        0.385091    5.118876   -1.093661
      9          1           0       -0.229557    4.769406   -2.721095
     10          1           0       -1.358866    4.868476   -1.357837
     11          6           0       -1.831618    2.917338    1.044281
     12          1           0       -2.075960    2.169745    1.813997
     13          6           0        1.066090    3.334384    1.228813
     14          1           0        0.612272    4.315029    1.433640
     15          1           0        1.175535    2.833506    2.203623
     16          6           0        2.432332    3.539822    0.571039
     17          1           0        3.068403    4.142518    1.239216
     18          1           0        2.952240    2.593376    0.376670
     19          1           0        2.351851    4.087652   -0.380392
     20          6           0       -1.035631   -3.320012    1.268100
     21          1           0       -0.836287   -4.399308    1.162632
     22          1           0       -2.038524   -3.153676    0.850036
     23          6           0       -0.964774   -2.885428    2.735015
     24          1           0        0.039678   -3.044974    3.164415
     25          1           0       -1.213343   -1.819815    2.847619
     26          1           0       -1.671490   -3.468912    3.343398
     27          6           0        1.827756   -3.087345    0.646296
     28          1           0        2.522952   -2.737021   -0.135161
     29          1           0        2.127384   -2.558893    1.565139
     30          6           0        1.938096   -4.603135    0.834163
     31          1           0        2.994564   -4.881516    0.991314
     32          1           0        1.374350   -4.953479    1.714065
     33          1           0        1.583593   -5.163763   -0.042499
     34          6           0       -0.151238   -3.151767   -1.517930
     35          1           0        0.107627   -4.221902   -1.465162
     36          1           0       -1.237804   -3.098372   -1.698041
     37          6           0        0.614570   -2.461685   -2.651116
     38          1           0        0.333303   -2.901782   -3.620724
     39          1           0        0.382732   -1.385086   -2.689364
     40          1           0        1.706606   -2.565860   -2.542830
     41         50           0       -2.717847   -0.233758   -0.365410
     42         17           0       -4.256920    0.109097    1.511477
     43         17           0       -3.701347    1.331345   -1.985206
     44         17           0       -3.800539   -2.262833   -1.218772
     45          6           0       -1.953209    4.324539    1.637902
     46          1           0       -2.992575    4.484975    1.967063
     47          1           0       -1.309305    4.458792    2.520127
     48          1           0       -1.711913    5.116550    0.913801
     49          1           0       -2.574879    2.780273    0.241178
     50          6           0        1.926722    0.099036    0.725389
     51          6           0        2.915253    0.062653   -0.274473
     52          6           0        2.336094    0.210564    2.066032
     53          6           0        4.267199    0.137099    0.077091
     54          1           0        2.640102   -0.020068   -1.327738
     55          6           0        3.693450    0.290228    2.398986
     56          1           0        1.592704    0.236951    2.867279
     57          6           0        4.678040    0.254721    1.406242
     58          1           0        3.992382    0.382127    3.446844
     59          1           0        5.736866    0.318924    1.660830
     60         35           0        5.594295    0.082577   -1.307350
 ---------------------------------------------------------------------

 SCF Done:  E(RPBE-PBE) =  -28427.2403497     A.U. after   11 cycles

      1  Pt   Isotropic =  2984.7100   Anisotropy =  1125.2158

      2  P    Isotropic =   289.9812   Anisotropy =    41.0176

      3  P    Isotropic =   273.0719   Anisotropy =    55.5596

      4  C    Isotropic =   156.8140   Anisotropy =    33.9352

      5  H    Isotropic =    28.7424   Anisotropy =     8.1570

      6  H    Isotropic =    29.3163   Anisotropy =     5.4514

      7  C    Isotropic =   172.3301   Anisotropy =    21.3187

      8  H    Isotropic =    30.3662   Anisotropy =     8.5283

      9  H    Isotropic =    30.1011   Anisotropy =    13.1387

     10  H    Isotropic =    30.1384   Anisotropy =     8.2644

     11  C    Isotropic =   147.8597   Anisotropy =    30.3315

     12  H    Isotropic =    28.6816   Anisotropy =     8.2443

     13  C    Isotropic =   165.0075   Anisotropy =    23.1559

     14  H    Isotropic =    29.2169   Anisotropy =     9.2242

     15  H    Isotropic =    29.9023   Anisotropy =     5.7053

     16  C    Isotropic =   176.1963   Anisotropy =    18.4231

     17  H    Isotropic =    30.9095   Anisotropy =    12.1135

     18  H    Isotropic =    32.1226   Anisotropy =    15.1309

     19  H    Isotropic =    30.9973   Anisotropy =     8.2295

     20  C    Isotropic =   156.2098   Anisotropy =    20.4880

     21  H    Isotropic =    29.3469   Anisotropy =     9.3473

     22  H    Isotropic =    29.2138   Anisotropy =     9.3312

     23  C    Isotropic =   172.3561   Anisotropy =    19.3286

     24  H    Isotropic =    30.5750   Anisotropy =     8.6519

     25  H    Isotropic =    30.2323   Anisotropy =     5.4327

     26  H    Isotropic =    30.1839   Anisotropy =    13.3653

     27  C    Isotropic =   163.8096   Anisotropy =    26.2821

     28  H    Isotropic =    30.1579   Anisotropy =     8.0526

     29  H    Isotropic =    30.3050   Anisotropy =     9.6474

     30  C    Isotropic =   176.7641   Anisotropy =    18.2594

     31  H    Isotropic =    30.4394   Anisotropy =    12.6941

     32  H    Isotropic =    30.6663   Anisotropy =    10.0022

     33  H    Isotropic =    30.6352   Anisotropy =     9.7864

     34  C    Isotropic =   157.7285   Anisotropy =    22.6614

     35  H    Isotropic =    29.4125   Anisotropy =     9.7501

     36  H    Isotropic =    28.7412   Anisotropy =    10.4720

     37  C    Isotropic =   171.3864   Anisotropy =    18.8366

     38  H    Isotropic =    30.0943   Anisotropy =    13.0269

     39  H    Isotropic =    30.1985   Anisotropy =     6.2231

     40  H    Isotropic =    30.3666   Anisotropy =     9.0109

     41  Sn   Isotropic =  2144.2605   Anisotropy =   828.5055

     42  Cl   Isotropic =   754.3894   Anisotropy =   317.3483

     43  Cl   Isotropic =   752.5234   Anisotropy =   308.7982

     44  Cl   Isotropic =   752.2844   Anisotropy =   292.3672

     45  C    Isotropic =   170.6877   Anisotropy =    21.1571

     46  H    Isotropic =    30.0141   Anisotropy =    12.1090

     47  H    Isotropic =    30.2253   Anisotropy =     9.1710

     48  H    Isotropic =    30.3392   Anisotropy =     8.6064

     49  H    Isotropic =    28.5622   Anisotropy =     9.4429

     50  C    Isotropic =     2.4309   Anisotropy =   184.0424

     51  C    Isotropic =    38.0885   Anisotropy =   126.2673

     52  C    Isotropic =    54.8333   Anisotropy =   165.7455

     53  C    Isotropic =    42.7892   Anisotropy =   100.2621

     54  H    Isotropic =    23.7624   Anisotropy =    17.4508

     55  C    Isotropic =    54.5930   Anisotropy =   173.9927

     56  H    Isotropic =    23.8772   Anisotropy =    13.0982

     57  C    Isotropic =    46.2791   Anisotropy =   113.0387

     58  H    Isotropic =    24.4617   Anisotropy =     4.4341

     59  H    Isotropic =    24.7830   Anisotropy =     5.5726

     60  Br   Isotropic =  1849.5847   Anisotropy =  1538.2214

 The electronic state is 1-A.
 Alpha  occ. eigenvalues -- ********************-478.62776-427.53966-414.87013
 Alpha  occ. eigenvalues -- -414.86976-414.86697-149.65145-141.92957-141.92953
 Alpha  occ. eigenvalues -- -141.92881-100.55547-100.55492-100.55312 -99.91996
 Alpha  occ. eigenvalues --  -92.07855 -92.07737 -92.07377 -79.03739 -79.03618
 Alpha  occ. eigenvalues --  -79.03417 -79.03358 -79.03311 -76.29968 -76.29847
 Alpha  occ. eigenvalues --  -61.54592 -55.73146 -55.72753 -55.72734 -28.81525
 Alpha  occ. eigenvalues --  -25.16160 -25.16152 -25.15923 -20.83464 -17.71054
 Alpha  occ. eigenvalues --  -17.71054 -17.70899 -17.70896 -17.70850 -17.40306
 Alpha  occ. eigenvalues --  -17.40086 -17.39319 -11.58690 -11.58265 -11.57851
 Alpha  occ. eigenvalues --  -11.57741 -11.57649  -9.95408  -9.91075  -9.90842
 Alpha  occ. eigenvalues --   -9.90815  -9.90771  -9.90708  -9.90679  -9.90643
 Alpha  occ. eigenvalues --   -9.90616  -9.90469  -9.90300  -9.89880  -9.89121
 Alpha  occ. eigenvalues --   -9.89098  -9.89069  -9.89055  -9.89050  -9.88665
 Alpha  occ. eigenvalues --   -9.13410  -9.13346  -9.13170  -8.37496  -6.97169
 Alpha  occ. eigenvalues --   -6.97100  -6.96930  -6.96614  -6.96603  -6.96557
 Alpha  occ. eigenvalues --   -6.96540  -6.96378  -6.96361  -6.32978  -6.32879
 Alpha  occ. eigenvalues --   -6.28576  -6.27432  -6.27384  -4.55510  -4.55503
 Alpha  occ. eigenvalues --   -4.55406  -4.55393  -4.55236  -4.55149  -4.50228
 Alpha  occ. eigenvalues --   -3.23678  -3.23651  -3.23246  -3.13551  -3.13518
 Alpha  occ. eigenvalues --   -3.13065  -3.12764  -3.12642  -3.12559  -3.12519
 Alpha  occ. eigenvalues --   -2.86423  -2.49461  -2.49173  -2.49142  -2.48294
 Alpha  occ. eigenvalues --   -2.48293  -1.81445  -1.81265  -1.78730  -1.02712
 Alpha  occ. eigenvalues --   -1.02706  -1.02338  -1.02297  -1.02202  -0.79768
 Alpha  occ. eigenvalues --   -0.73674  -0.73458  -0.73380  -0.72085  -0.70571
 Alpha  occ. eigenvalues --   -0.70436  -0.69627  -0.69424  -0.69193  -0.69146
 Alpha  occ. eigenvalues --   -0.68267  -0.65888  -0.61415  -0.61073  -0.57237
 Alpha  occ. eigenvalues --   -0.56888  -0.56565  -0.55653  -0.55184  -0.53517
 Alpha  occ. eigenvalues --   -0.49175  -0.48364  -0.46689  -0.43189  -0.42600
 Alpha  occ. eigenvalues --   -0.42445  -0.42187  -0.41793  -0.41667  -0.40873
 Alpha  occ. eigenvalues --   -0.40424  -0.40089  -0.38756  -0.38395  -0.38029
 Alpha  occ. eigenvalues --   -0.37687  -0.37665  -0.37275  -0.36881  -0.36721
 Alpha  occ. eigenvalues --   -0.36636  -0.35404  -0.35236  -0.34883  -0.34126
 Alpha  occ. eigenvalues --   -0.33734  -0.33501  -0.33314  -0.32747  -0.32584
 Alpha  occ. eigenvalues --   -0.32212  -0.32046  -0.31908  -0.31718  -0.31298
 Alpha  occ. eigenvalues --   -0.31290  -0.31068  -0.30585  -0.30521  -0.29114
 Alpha  occ. eigenvalues --   -0.28802  -0.28550  -0.28360  -0.28219  -0.27515
 Alpha  occ. eigenvalues --   -0.27266  -0.27156  -0.26298  -0.26197  -0.25881
 Alpha  occ. eigenvalues --   -0.25771  -0.25611  -0.25434  -0.23982  -0.22594
 Alpha  occ. eigenvalues --   -0.22361  -0.21443  -0.20279
 Alpha virt. eigenvalues --   -0.08392  -0.06427  -0.05514  -0.05111  -0.04331
 Alpha virt. eigenvalues --   -0.04095  -0.02757  -0.02334  -0.01780  -0.01581
 Alpha virt. eigenvalues --   -0.00722  -0.00423  -0.00210   0.00038   0.00615

 Mulliken charges:
               1
     1  Pt   0.361719
     2  P    0.046512
     3  P    0.160212
     4  C   -0.355237
     5  H    0.088161
     6  H    0.094240
     7  C   -0.173640
     8  H    0.107564
     9  H    0.137847
    10  H    0.112424
    11  C   -0.335613
    12  H    0.098257
    13  C   -0.324638
    14  H    0.111671
    15  H    0.087155
    16  C   -0.074473
    17  H    0.119600
    18  H    0.037509
    19  H    0.091126
    20  C   -0.374572
    21  H    0.111882
    22  H    0.079368
    23  C   -0.107060
    24  H    0.102837
    25  H    0.075691
    26  H    0.133132
    27  C   -0.401249
    28  H    0.083458
    29  H    0.079049
    30  C   -0.175219
    31  H    0.136402
    32  H    0.114976
    33  H    0.111921
    34  C   -0.406646
    35  H    0.103160
    36  H    0.090908
    37  C   -0.111049
    38  H    0.135157
    39  H    0.071501
    40  H    0.099656
    41  Sn   0.311738
    42  Cl  -0.286083
    43  Cl  -0.279176
    44  Cl  -0.221858
    45  C   -0.166634
    46  H    0.132542
    47  H    0.116877
    48  H    0.111179
    49  H    0.079084
    50  C   -0.078233
    51  C   -0.742130
    52  C   -0.081242
    53  C    1.476289
    54  H    0.033825
    55  C   -0.218426
    56  H    0.072926
    57  C   -1.068695
    58  H    0.127553
    59  H    0.120849
    60  Br   0.215917
 Sum of Mulliken charges =   0.00000

 Dipole moment (field-independent basis, Debye):
    X=             10.4695    Y=              0.9163    Z=              3.8609  Tot=             11.1963
 Quadrupole moment (field-independent basis, Debye-Ang):
   XX=           -318.2651   YY=           -222.7199   ZZ=           -251.3125
   XY=             -7.7529   XZ=             -0.5799   YZ=              1.0105

 Normal termination of Gaussian 09 at Mon Aug 26 04:51:04 2019.
