 Gaussian 09, Revision A.02,
 Gaussian 09:  EM64L-G09RevA.02 11-Jun-2009

 ----------------------------------------------------------------------
 #PBEPBE/gen scf=(maxcycle=500,conver=4) NMR=GIAO Scrf=(solvent=Dichlor
 omethane)
 ----------------------------------------------------------------------

 ------------
 estrutura 44
 ------------
 Symbolic Z-matrix:
 Charge = -1 Multiplicity = 1

                         Standard orientation:
 ---------------------------------------------------------------------
 Center     Atomic      Atomic             Coordinates (Angstroms)
 Number     Number       Type             X           Y           Z
 ---------------------------------------------------------------------
      1         78           0       -0.004856    0.367016   -0.134379
      2          1           0        0.056791    0.286230   -1.717974
      3         50           0        2.461288   -0.557831   -0.604004
      4         50           0       -1.879548   -1.530310   -0.521588
      5         17           0        3.692152    0.881194   -2.209447
      6         17           0        2.907054   -2.724770   -1.707498
      7         17           0        4.274370   -0.686845    1.110405
      8         17           0       -1.632177   -3.976033   -0.858091
      9         17           0       -3.654062   -1.615391    1.253181
     10         17           0       -3.356624   -1.061496   -2.465196
     11         15           0       -0.008700    0.313300    2.314740
     12         15           0       -0.674087    2.584636   -0.658186
     13          6           0       -0.971019    2.719402   -2.491036
     14          1           0        0.013246    2.528738   -2.951567
     15          6           0       -2.222059    3.250166    0.117778
     16          1           0       -2.011867    3.360130    1.193052
     17          6           0        0.644667    3.818279   -0.209607
     18          1           0        1.519691    3.531581   -0.817104
     19          6           0        1.476723    1.178327    3.020723
     20          1           0        2.348332    0.696506    2.548100
     21          1           0        1.436042    2.196181    2.597727
     22          6           0        1.657570    1.239364    4.539151
     23          1           0        2.610446    1.736892    4.778083
     24          1           0        0.858531    1.811251    5.032112
     25          1           0        1.692801    0.238750    4.995635
     26          6           0       -1.497904    1.117423    3.099972
     27          1           0       -2.330018    0.913093    2.409873
     28          6           0       -0.013700   -1.388510    3.063615
     29          1           0        0.079339   -1.265871    4.153923
     30          1           0       -1.026903   -1.780421    2.877313
     31          6           0        1.039031   -2.367965    2.543448
     32          1           0        1.000195   -3.302032    3.126253
     33          1           0        0.856543   -2.632103    1.491885
     34          1           0        2.061362   -1.970254    2.617422
     35          6           0       -1.613734    3.983921   -3.067355
     36          1           0       -0.995086    4.882052   -2.923947
     37          1           0       -1.756152    3.856184   -4.152475
     38          1           0       -2.606363    4.181215   -2.631732
     39          6           0        0.358956    5.319665   -0.324483
     40          1           0        0.162629    5.632370   -1.359341
     41          1           0       -0.499672    5.626305    0.292755
     42          1           0        1.234443    5.888167    0.028312
     43          6           0       -3.476097    2.401142   -0.106823
     44          1           0       -3.382212    1.402480    0.342892
     45          1           0       -4.352322    2.890633    0.348150
     46          1           0       -3.695279    2.259435   -1.176047
     47          6           0       -1.913909    0.696055    4.513882
     48          1           0       -2.766621    1.311390    4.842874
     49          1           0       -2.244572   -0.352400    4.539836
     50          1           0       -1.112217    0.818356    5.256444
     51          1           0       -2.373830    4.269084   -0.275587
     52          1           0       -1.302890    2.201714    3.056611
     53          1           0        0.912466    3.570816    0.830001
     54          1           0       -1.586556    1.837537   -2.733258
 ---------------------------------------------------------------------

 SCF Done:  E(RPBE-PBE) =  -32989.2468966     A.U. after    9 cycles

  1  Pt   Isotropic =  3387.8752   Anisotropy =   491.0509

  2  H    Isotropic =    35.6005   Anisotropy =    25.1091

  3  Sn   Isotropic =  2179.7985   Anisotropy =   931.9553

  4  Sn   Isotropic =  2200.0503   Anisotropy =   883.5583

  5  Cl   Isotropic =   714.8712   Anisotropy =   408.7084

  6  Cl   Isotropic =   729.0988   Anisotropy =   398.9771

  7  Cl   Isotropic =   722.0341   Anisotropy =   359.4979

  8  Cl   Isotropic =   729.1499   Anisotropy =   402.3267

  9  Cl   Isotropic =   740.2414   Anisotropy =   353.0737

 10  Cl   Isotropic =   721.4273   Anisotropy =   396.4195

 11  P    Isotropic =   265.6959   Anisotropy =    60.1296

 12  P    Isotropic =   276.7342   Anisotropy =    58.6357

 13  C    Isotropic =   143.4775   Anisotropy =    55.5677

 14  H    Isotropic =    28.9864   Anisotropy =     8.1205

 15  C    Isotropic =   161.1112   Anisotropy =    10.4881

 16  H    Isotropic =    29.9663   Anisotropy =     6.5417

 17  C    Isotropic =   148.1909   Anisotropy =    36.6942

 18  H    Isotropic =    29.1819   Anisotropy =     6.4865

 19  C    Isotropic =   152.4415   Anisotropy =    35.2981

 20  H    Isotropic =    28.5029   Anisotropy =    10.5524

 21  H    Isotropic =    29.7009   Anisotropy =     6.7480

 22  C    Isotropic =   174.0920   Anisotropy =    20.8436

 23  H    Isotropic =    30.2888   Anisotropy =    12.8304

 24  H    Isotropic =    30.1580   Anisotropy =     9.8586

 25  H    Isotropic =    30.0331   Anisotropy =     9.0125

 26  C    Isotropic =   155.4106   Anisotropy =    31.9953

 27  H    Isotropic =    28.5489   Anisotropy =     8.0550

 28  C    Isotropic =   161.6762   Anisotropy =    12.5579

 29  H    Isotropic =    29.1866   Anisotropy =     9.9513

 30  H    Isotropic =    29.7240   Anisotropy =     7.6029

 31  C    Isotropic =   171.6991   Anisotropy =    10.9940

 32  H    Isotropic =    30.1684   Anisotropy =    13.1252

 33  H    Isotropic =    30.2883   Anisotropy =     5.4246

 34  H    Isotropic =    30.2373   Anisotropy =     8.5277

 35  C    Isotropic =   171.8595   Anisotropy =    23.0873

 36  H    Isotropic =    30.4118   Anisotropy =     9.5183

 37  H    Isotropic =    30.2777   Anisotropy =    12.9674

 38  H    Isotropic =    30.3151   Anisotropy =     7.8815

 39  C    Isotropic =   172.0432   Anisotropy =    22.8515

 40  H    Isotropic =    30.3174   Anisotropy =     8.9872

 41  H    Isotropic =    30.1691   Anisotropy =     8.1962

 42  H    Isotropic =    30.3845   Anisotropy =    12.4383

 43  C    Isotropic =   173.4536   Anisotropy =    12.8322

 44  H    Isotropic =    29.8519   Anisotropy =    10.0142

 45  H    Isotropic =    30.2047   Anisotropy =    12.6458

 46  H    Isotropic =    30.3826   Anisotropy =     6.9059

 47  C    Isotropic =   173.6207   Anisotropy =    21.1215

 48  H    Isotropic =    30.3689   Anisotropy =    12.7506

 49  H    Isotropic =    29.8111   Anisotropy =     7.9975

 50  H    Isotropic =    29.9619   Anisotropy =     9.4023

 51  H    Isotropic =    28.6737   Anisotropy =    10.1751

 52  H    Isotropic =    29.8413   Anisotropy =     3.7386

 53  H    Isotropic =    29.3671   Anisotropy =     8.6042

 54  H    Isotropic =    28.9716   Anisotropy =     8.7302

 The electronic state is 1-A.
 Alpha  occ. eigenvalues -- ******************************-427.54260-414.87319
 Alpha  occ. eigenvalues -- -414.87140-414.87082-149.63521-149.63210-141.91340
 Alpha  occ. eigenvalues -- -141.91332-141.91272-141.91028-141.91019-141.90962
 Alpha  occ. eigenvalues -- -100.53794-100.53595-100.53524-100.53444-100.53441
 Alpha  occ. eigenvalues -- -100.53362 -99.92305 -92.08244 -92.07845 -92.07799
 Alpha  occ. eigenvalues --  -79.04035 -79.03859 -79.03836 -79.03632 -79.03620
 Alpha  occ. eigenvalues --  -76.28818 -76.28515 -28.79847 -28.79539 -25.14479
 Alpha  occ. eigenvalues --  -25.14456 -25.14274 -25.14167 -25.14142 -25.13975
 Alpha  occ. eigenvalues --  -20.83824 -17.69368 -17.69367 -17.69244 -17.69228
 Alpha  occ. eigenvalues --  -17.69197 -17.69054 -17.69052 -17.68940 -17.68921
 Alpha  occ. eigenvalues --  -17.68894 -17.40820 -17.40040 -17.39936 -11.59013
 Alpha  occ. eigenvalues --  -11.58485 -11.58442 -11.58058 -11.58016  -9.90192
 Alpha  occ. eigenvalues --   -9.90118  -9.89900  -9.89757  -9.89407  -9.89357
 Alpha  occ. eigenvalues --   -9.88439  -9.88321  -9.88321  -9.88162  -9.88130
 Alpha  occ. eigenvalues --   -9.87664  -9.11642  -9.11462  -9.11368  -9.11325
 Alpha  occ. eigenvalues --   -9.11307  -9.11244  -6.95376  -6.95213  -6.95084
 Alpha  occ. eigenvalues --   -6.95057  -6.95045  -6.94974  -6.94861  -6.94854
 Alpha  occ. eigenvalues --   -6.94676  -6.94656  -6.94599  -6.94587  -6.94546
 Alpha  occ. eigenvalues --   -6.94526  -6.94525  -6.94510  -6.94463  -6.94448
 Alpha  occ. eigenvalues --   -6.31758  -6.31537  -4.54308  -4.54297  -4.54066
 Alpha  occ. eigenvalues --   -4.54061  -4.53998  -4.53798  -4.48478  -4.48173
 Alpha  occ. eigenvalues --   -3.21905  -3.21859  -3.21594  -3.21552  -3.21546
 Alpha  occ. eigenvalues --   -3.21261  -3.13864  -3.13670  -3.13609  -3.13161
 Alpha  occ. eigenvalues --   -3.13132  -3.12893  -3.12890  -2.86882  -1.82002
 Alpha  occ. eigenvalues --   -1.80691  -1.80169  -1.00866  -1.00859  -1.00567
 Alpha  occ. eigenvalues --   -1.00558  -1.00546  -1.00540  -1.00478  -1.00260
 Alpha  occ. eigenvalues --   -1.00246  -1.00183  -0.72485  -0.72280  -0.70077
 Alpha  occ. eigenvalues --   -0.69829  -0.68760  -0.68689  -0.68575  -0.68537
 Alpha  occ. eigenvalues --   -0.68454  -0.68425  -0.68279  -0.68174  -0.60491
 Alpha  occ. eigenvalues --   -0.60300  -0.56014  -0.55868  -0.55627  -0.55553
 Alpha  occ. eigenvalues --   -0.47775  -0.47496  -0.41933  -0.41614  -0.41301
 Alpha  occ. eigenvalues --   -0.41112  -0.40140  -0.39685  -0.39531  -0.39350
 Alpha  occ. eigenvalues --   -0.38181  -0.37430  -0.37344  -0.37220  -0.36571
 Alpha  occ. eigenvalues --   -0.36354  -0.35552  -0.34380  -0.34051  -0.33873
 Alpha  occ. eigenvalues --   -0.33677  -0.33128  -0.32758  -0.32739  -0.32115
 Alpha  occ. eigenvalues --   -0.31201  -0.30929  -0.30685  -0.30459  -0.30406
 Alpha  occ. eigenvalues --   -0.30145  -0.30009  -0.29840  -0.29789  -0.29502
 Alpha  occ. eigenvalues --   -0.29072  -0.28359  -0.28013  -0.27195  -0.26923
 Alpha  occ. eigenvalues --   -0.26492  -0.26267  -0.25954  -0.25789  -0.25747
 Alpha  occ. eigenvalues --   -0.25637  -0.25546  -0.24943  -0.24563  -0.24463
 Alpha  occ. eigenvalues --   -0.24392  -0.24258  -0.24162  -0.24081  -0.22275
 Alpha  occ. eigenvalues --   -0.18373  -0.17409
 Alpha virt. eigenvalues --   -0.08000  -0.04522  -0.03586  -0.02992  -0.02545
 Alpha virt. eigenvalues --   -0.01868  -0.01481  -0.00970  -0.00369  -0.00106
 Alpha virt. eigenvalues --    0.00615   0.01091   0.01155   0.01327   0.01442

 Mulliken atomic charges:
              1
     1  Pt  -0.259031
     2  H    0.070810
     3  Sn   0.485826
     4  Sn   0.481140
     5  Cl  -0.319998
     6  Cl  -0.292282
     7  Cl  -0.323772
     8  Cl  -0.301655
     9  Cl  -0.349543
    10  Cl  -0.331888
    11  P    0.095795
    12  P    0.147200
    13  C   -0.418263
    14  H    0.092855
    15  C   -0.380133
    16  H    0.093084
    17  C   -0.400763
    18  H    0.093661
    19  C   -0.287449
    20  H    0.074701
    21  H    0.070060
    22  C   -0.220994
    23  H    0.139250
    24  H    0.111322
    25  H    0.107278
    26  C   -0.375110
    27  H    0.080355
    28  C   -0.381874
    29  H    0.105041
    30  H    0.088516
    31  C   -0.091927
    32  H    0.123845
    33  H    0.069047
    34  H    0.082303
    35  C   -0.152668
    36  H    0.103112
    37  H    0.137643
    38  H    0.102347
    39  C   -0.161103
    40  H    0.106003
    41  H    0.110091
    42  H    0.138262
    43  C   -0.118356
    44  H    0.056686
    45  H    0.127878
    46  H    0.093405
    47  C   -0.137181
    48  H    0.129224
    49  H    0.113970
    50  H    0.108647
    51  H    0.108527
    52  H    0.081306
    53  H    0.082808
    54  H    0.091988
 Sum of Mulliken atomic charges =  -1.00000

 Dipole moment (field-independent basis, Debye):
    X=             -4.0986    Y=             18.5055    Z=             10.6720  Tot=             21.7519
 Quadrupole moment (field-independent basis, Debye-Ang):
   XX=           -368.3814   YY=           -292.2636   ZZ=           -277.0624
   XY=            -17.9747   XZ=              6.9431   YZ=            -11.7007

 Normal termination of Gaussian 09 at Sat Jun 15 01:50:06 2019.
