 Gaussian 09, Revision A.02,
 Gaussian 09:  EM64L-G09RevA.02 11-Jun-2009

 ----------------------------------------------------------------------
 #PBEPBE/gen scf=(maxcycle=500,conver=4) NMR=GIAO Scrf=(solvent=Dichlor
 omethane)
 ----------------------------------------------------------------------

 ------------
 estrutura 54
 ------------
 Symbolic Z-matrix:
 Charge =  0 Multiplicity = 1

                         Standard orientation:
 ---------------------------------------------------------------------
 Center     Atomic      Atomic             Coordinates (Angstroms)
 Number     Number       Type             X           Y           Z
 ---------------------------------------------------------------------
      1         15           0       -2.466729   -0.237108   -0.799470
      2         15           0        1.828408   -1.579199    0.687639
      3          6           0       -3.702638   -1.510188   -0.443731
      4          6           0       -4.671152   -1.011046    0.359274
      5          6           0       -4.493060    0.438257    0.696572
      6          6           0       -3.388573    1.001076    0.147580
      7          6           0       -5.832432   -1.800909    0.890737
      8          6           0       -5.490401    1.162082    1.550670
      9          6           0        2.989352   -2.164987   -0.564173
     10          6           0        4.171213   -1.509943   -0.444316
     11          6           0        4.205245   -0.515927    0.673762
     12          6           0        3.050908   -0.445121    1.382503
     13          6           0        5.374829   -1.753529   -1.308049
     14          6           0        5.421193    0.318825    0.938079
     15          1           0       -3.630073   -2.540390   -0.787690
     16          1           0       -3.087607    2.043339    0.249237
     17          1           0       -6.788828   -1.294044    0.682021
     18          1           0       -5.868000   -2.805436    0.446541
     19          1           0       -5.763388   -1.912700    1.987389
     20          1           0       -6.491867    1.134712    1.088327
     21          1           0       -5.589004    0.685050    2.540949
     22          1           0       -5.209768    2.214070    1.695084
     23          1           0        2.752250   -2.915452   -1.317830
     24          1           0        2.868034    0.219542    2.227709
     25          1           0        5.831233   -0.810860   -1.650720
     26          1           0        6.150670   -2.293699   -0.735382
     27          1           0        5.119360   -2.361947   -2.187085
     28          1           0        6.306110   -0.311646    1.123076
     29          1           0        5.654158    0.949860    0.064644
     30          1           0        5.274350    0.976338    1.805561
     31         78           0       -0.255554   -0.800858   -0.132372
     32         17           0       -0.778397   -3.148405   -0.541367
     33         50           0        0.509160    1.666530   -0.021849
     34         17           0       -0.934865    3.363102   -0.988812
     35         17           0        2.508081    2.224407   -1.254428
     36         17           0        0.966583    2.681543    2.120526
     37          6           0        1.604627   -2.906313    1.937831
     38          1           0        0.966323   -3.688694    1.507855
     39          1           0        2.588757   -3.311633    2.215864
     40          1           0        1.113160   -2.480863    2.823314
     41          6           0       -2.607563    0.196672   -2.583192
     42          1           0       -2.093296   -0.572868   -3.174338
     43          1           0       -3.666036    0.250532   -2.872436
     44          1           0       -2.119641    1.167158   -2.749072
 ---------------------------------------------------------------------

 SCF Done:  E(RPBE-PBE) =  -26159.8060684     A.U. after    9 cycles

  1  P    Isotropic =   268.8833   Anisotropy =    89.5733

  2  P    Isotropic =   274.0060   Anisotropy =    64.1722

  3  C    Isotropic =    44.6134   Anisotropy =   125.0907

  4  C    Isotropic =    23.2500   Anisotropy =   158.7144

  5  C    Isotropic =    21.6010   Anisotropy =   152.0401

  6  C    Isotropic =    49.2478   Anisotropy =   115.1976

  7  C    Isotropic =   163.2854   Anisotropy =    32.8081

  8  C    Isotropic =   163.6053   Anisotropy =    31.5161

  9  C    Isotropic =    48.3867   Anisotropy =   114.9179

 10  C    Isotropic =    19.5844   Anisotropy =   169.3050

 11  C    Isotropic =    21.1023   Anisotropy =   161.9273

 12  C    Isotropic =    43.5921   Anisotropy =   133.5195

 13  C    Isotropic =   163.5343   Anisotropy =    31.3865

 14  C    Isotropic =   162.3030   Anisotropy =    29.9556

 15  H    Isotropic =    23.6596   Anisotropy =    10.8164

 16  H    Isotropic =    24.4153   Anisotropy =    10.4246

 17  H    Isotropic =    29.2098   Anisotropy =     8.6125

 18  H    Isotropic =    29.1455   Anisotropy =     6.9412

 19  H    Isotropic =    29.1548   Anisotropy =     7.8805

 20  H    Isotropic =    29.2001   Anisotropy =     9.1225

 21  H    Isotropic =    29.1882   Anisotropy =     7.8033

 22  H    Isotropic =    29.2432   Anisotropy =     5.9588

 23  H    Isotropic =    24.5407   Anisotropy =     9.8270

 24  H    Isotropic =    24.5046   Anisotropy =     8.1924

 25  H    Isotropic =    29.0870   Anisotropy =     6.4921

 26  H    Isotropic =    28.9503   Anisotropy =    10.4159

 27  H    Isotropic =    29.0304   Anisotropy =     7.3901

 28  H    Isotropic =    28.9508   Anisotropy =    10.3557

 29  H    Isotropic =    29.2981   Anisotropy =     6.1527

 30  H    Isotropic =    29.2150   Anisotropy =     6.4124

 31  Pt   Isotropic =  3129.2857   Anisotropy =  1786.3299

 32  Cl   Isotropic =   946.8741   Anisotropy =   487.4184

 33  Sn   Isotropic =  2085.5369   Anisotropy =   880.8900

 34  Cl   Isotropic =   740.0139   Anisotropy =   304.8389

 35  Cl   Isotropic =   774.3062   Anisotropy =   320.0369

 36  Cl   Isotropic =   733.7262   Anisotropy =   359.9771

 37  C    Isotropic =   167.0018   Anisotropy =    39.4502

 38  H    Isotropic =    28.6062   Anisotropy =     7.0173

 39  H    Isotropic =    30.7415   Anisotropy =    13.6434

 40  H    Isotropic =    29.9459   Anisotropy =    10.1093

 41  C    Isotropic =   166.7602   Anisotropy =    41.1377

 42  H    Isotropic =    29.6619   Anisotropy =     8.8186

 43  H    Isotropic =    30.5060   Anisotropy =    13.8613

 44  H    Isotropic =    29.3595   Anisotropy =     7.0864

 The electronic state is 1-A.
 Alpha  occ. eigenvalues -- ********************-427.54841-414.87900-414.87817
 Alpha  occ. eigenvalues -- -414.87551-149.66646-141.94461-141.94454-141.94386
 Alpha  occ. eigenvalues -- -100.56658-100.56524-100.56389-100.53102 -99.92897
 Alpha  occ. eigenvalues --  -92.08802 -92.08629 -92.08227 -79.04664 -79.04536
 Alpha  occ. eigenvalues --  -79.04319 -79.04218 -79.04169 -76.31282 -76.31248
 Alpha  occ. eigenvalues --  -28.83026 -25.17666 -25.17645 -25.17427 -20.84369
 Alpha  occ. eigenvalues --  -17.72553 -17.72552 -17.72405 -17.72392 -17.72351
 Alpha  occ. eigenvalues --  -17.41308 -17.40977 -17.40131 -11.59669 -11.59221
 Alpha  occ. eigenvalues --  -11.58777 -11.58570 -11.58468  -9.92737  -9.92616
 Alpha  occ. eigenvalues --   -9.92588  -9.92534  -9.90858  -9.90772  -9.90574
 Alpha  occ. eigenvalues --   -9.90409  -9.90370  -9.90242  -9.89513  -9.89486
 Alpha  occ. eigenvalues --   -9.89455  -9.89323  -9.14500  -9.14365  -9.14234
 Alpha  occ. eigenvalues --   -9.10937  -6.98306  -6.98159  -6.98046  -6.97685
 Alpha  occ. eigenvalues --   -6.97670  -6.97558  -6.97541  -6.97419  -6.97397
 Alpha  occ. eigenvalues --   -6.94693  -6.94171  -6.94110  -6.34383  -6.34326
 Alpha  occ. eigenvalues --   -4.56904  -4.56867  -4.56847  -4.56820  -4.56676
 Alpha  occ. eigenvalues --   -4.56616  -4.51760  -3.25206  -3.25169  -3.24816
 Alpha  occ. eigenvalues --   -3.14534  -3.14489  -3.13999  -3.13669  -3.13537
 Alpha  occ. eigenvalues --   -3.13367  -3.13333  -2.87370  -1.82675  -1.82085
 Alpha  occ. eigenvalues --   -1.79583  -1.04272  -1.04261  -1.03882  -1.03852
 Alpha  occ. eigenvalues --   -1.03813  -0.79237  -0.79131  -0.73242  -0.71635
 Alpha  occ. eigenvalues --   -0.71435  -0.69864  -0.69660  -0.69615  -0.69560
 Alpha  occ. eigenvalues --   -0.68311  -0.65050  -0.64985  -0.61462  -0.61393
 Alpha  occ. eigenvalues --   -0.56605  -0.56288  -0.51088  -0.50595  -0.46390
 Alpha  occ. eigenvalues --   -0.46294  -0.43854  -0.43309  -0.43038  -0.40810
 Alpha  occ. eigenvalues --   -0.39976  -0.39841  -0.39654  -0.38610  -0.38513
 Alpha  occ. eigenvalues --   -0.38239  -0.38173  -0.36473  -0.36465  -0.36381
 Alpha  occ. eigenvalues --   -0.36303  -0.36235  -0.35719  -0.35648  -0.34554
 Alpha  occ. eigenvalues --   -0.34325  -0.33494  -0.33328  -0.32717  -0.32218
 Alpha  occ. eigenvalues --   -0.31739  -0.31553  -0.31234  -0.29545  -0.29487
 Alpha  occ. eigenvalues --   -0.28873  -0.28629  -0.28415  -0.28384  -0.28101
 Alpha  occ. eigenvalues --   -0.27217  -0.27019  -0.26899  -0.26564  -0.24800
 Alpha  occ. eigenvalues --   -0.24574  -0.23205  -0.22567  -0.22427  -0.21746
 Alpha  occ. eigenvalues --   -0.21513
 Alpha virt. eigenvalues --   -0.12420  -0.09189  -0.08261  -0.05622  -0.03951
 Alpha virt. eigenvalues --   -0.03424  -0.01655  -0.01302  -0.00744  -0.00187
 Alpha virt. eigenvalues --   -0.00058   0.00461   0.00593   0.00611   0.01024

 Mulliken atomic charges:
              1
     1  P   -0.045573
     2  P   -0.046986
     3  C    0.074980
     4  C   -0.419238
     5  C   -0.311390
     6  C    0.031590
     7  C   -0.205263
     8  C   -0.188665
     9  C    0.055201
    10  C   -0.486728
    11  C   -0.308842
    12  C    0.040629
    13  C   -0.169421
    14  C   -0.132180
    15  H    0.138908
    16  H    0.109919
    17  H    0.143976
    18  H    0.138110
    19  H    0.145080
    20  H    0.144903
    21  H    0.144658
    22  H    0.134978
    23  H    0.137729
    24  H    0.133327
    25  H    0.136350
    26  H    0.147405
    27  H    0.137082
    28  H    0.149411
    29  H    0.127912
    30  H    0.127500
    31  Pt   0.671832
    32  Cl  -0.504592
    33  Sn   0.293580
    34  Cl  -0.174868
    35  Cl  -0.235448
    36  Cl  -0.227977
    37  C   -0.340002
    38  H    0.130985
    39  H    0.137997
    40  H    0.112180
    41  C   -0.308559
    42  H    0.113403
    43  H    0.134756
    44  H    0.111351
 Sum of Mulliken atomic charges =   0.00000

 Dipole moment (field-independent basis, Debye):
    X=             -1.8460    Y=             -5.5263    Z=              1.7080  Tot=              6.0717
 Quadrupole moment (field-independent basis, Debye-Ang):
   XX=           -159.1282   YY=           -250.8101   ZZ=           -214.7091
   XY=            -15.6600   XZ=             -0.8887   YZ=             -3.6809

 Normal termination of Gaussian 09 at Sat Jun 15 10:23:01 2019.
