 Gaussian 09, Revision D.01,
 Gaussian 09:  EM64L-G09RevD.01 24-Apr-2013

 ----------------------------------------------------------------------
 #PBEPBE/gen scf=(maxcycle=500,conver=4) NMR=GIAO Scrf=(solvent=Dichlor
 omethane)
 ----------------------------------------------------------------------

 ------------
 estrutura 74
 ------------
 Symbolic Z-matrix:
 Charge =  0 Multiplicity = 1

                         Standard orientation:
 ---------------------------------------------------------------------
 Center     Atomic      Atomic             Coordinates (Angstroms)
 Number     Number       Type             X           Y           Z
 ---------------------------------------------------------------------
      1         78           0        0.152674   -0.052431   -0.022822
      2         15           0        0.239951    2.358901   -0.067630
      3         15           0       -0.011433   -2.442832    0.109505
      4          6           0        0.528936    2.967459    1.659224
      5          1           0        1.388990    2.385984    2.025898
      6          1           0       -0.344120    2.628634    2.240528
      7          6           0        0.779931    4.464922    1.859186
      8          1           0       -0.038490    5.088074    1.465606
      9          1           0        0.873242    4.685077    2.935396
     10          1           0        1.716509    4.787161    1.379224
     11          6           0        1.670941    2.990793   -1.087273
     12          1           0        1.811005    2.268017   -1.904786
     13          6           0       -1.231395    3.298406   -0.709137
     14          1           0       -0.851797    4.280814   -1.027820
     15          1           0       -1.553159    2.776511   -1.624554
     16          6           0       -2.414470    3.498844    0.242428
     17          1           0       -3.201367    4.072441   -0.273124
     18          1           0       -2.853602    2.549872    0.572307
     19          1           0       -2.129281    4.071165    1.137808
     20          6           0        0.885147   -3.326971   -1.247395
     21          1           0        0.761661   -4.409283   -1.078924
     22          1           0        1.955432   -3.113217   -1.104370
     23          6           0        0.425605   -2.930768   -2.652977
     24          1           0       -0.636804   -3.169781   -2.821466
     25          1           0        0.560299   -1.850422   -2.825455
     26          1           0        1.009920   -3.471404   -3.412971
     27          6           0       -1.736181   -3.132005    0.068065
     28          1           0       -2.232835   -2.747674    0.973935
     29          1           0       -2.254463   -2.650651   -0.776274
     30          6           0       -1.861981   -4.656019   -0.014217
     31          1           0       -2.921831   -4.945331    0.062816
     32          1           0       -1.482964   -5.053520   -0.967954
     33          1           0       -1.327425   -5.167135    0.801912
     34          6           0        0.707721   -3.137347    1.672598
     35          1           0        0.455338   -4.210278    1.693700
     36          1           0        1.805055   -3.074157    1.582420
     37          6           0        0.229502   -2.441523    2.951038
     38          1           0        0.665160   -2.936501    3.834171
     39          1           0        0.538153   -1.382735    2.970399
     40          1           0       -0.867984   -2.473872    3.061821
     41         50           0        2.886152   -0.196903   -0.025349
     42         17           0        4.107095    0.393656   -2.068532
     43         17           0        4.061583    1.258247    1.573293
     44         17           0        4.148588   -2.252986    0.428207
     45          6           0        1.623173    4.409258   -1.664095
     46          1           0        2.583226    4.625716   -2.160605
     47          1           0        0.834303    4.520583   -2.423086
     48          1           0        1.468871    5.179581   -0.894258
     49          1           0        2.548665    2.879964   -0.429891
     50          6           0       -1.897806    0.042322   -0.036162
     51          6           0       -2.642563    0.009337    1.156442
     52          6           0       -2.606882    0.103726   -1.248804
     53          6           0       -4.043745    0.034023    1.147449
     54          1           0       -2.132707   -0.037343    2.123123
     55          6           0       -4.007551    0.130358   -1.278113
     56          1           0       -2.070381    0.126762   -2.201951
     57          6           0       -4.716776    0.094207   -0.075069
     58          1           0       -4.600690    0.009662    2.086826
     59          1           0       -4.536872    0.176434   -2.232321
     60         35           0       -6.632177    0.127967   -0.105379
 ---------------------------------------------------------------------

 SCF Done:  E(RPBE-PBE) =  -28427.2386860     A.U. after   10 cycles

      1  Pt   Isotropic =  3009.7873   Anisotropy =  1106.6517

      2  P    Isotropic =   287.8671   Anisotropy =    34.8075

      3  P    Isotropic =   270.0538   Anisotropy =    56.3026

      4  C    Isotropic =   160.7297   Anisotropy =    30.2981

      5  H    Isotropic =    28.6440   Anisotropy =     8.3358

      6  H    Isotropic =    29.3103   Anisotropy =     4.9143

      7  C    Isotropic =   173.1122   Anisotropy =    20.2928

      8  H    Isotropic =    30.2658   Anisotropy =     8.7053

      9  H    Isotropic =    30.2437   Anisotropy =    12.8804

     10  H    Isotropic =    29.9984   Anisotropy =     8.1253

     11  C    Isotropic =   150.4512   Anisotropy =    27.7656

     12  H    Isotropic =    28.6015   Anisotropy =     8.4532

     13  C    Isotropic =   166.0398   Anisotropy =    23.8599

     14  H    Isotropic =    29.2668   Anisotropy =     9.0916

     15  H    Isotropic =    29.7980   Anisotropy =     6.0760

     16  C    Isotropic =   176.1312   Anisotropy =    18.5094

     17  H    Isotropic =    30.8753   Anisotropy =    11.7258

     18  H    Isotropic =    31.8474   Anisotropy =    14.2621

     19  H    Isotropic =    31.0042   Anisotropy =     8.5420

     20  C    Isotropic =   159.2498   Anisotropy =    19.8943

     21  H    Isotropic =    29.7725   Anisotropy =     8.5948

     22  H    Isotropic =    29.0829   Anisotropy =    10.4128

     23  C    Isotropic =   174.6384   Anisotropy =    16.2485

     24  H    Isotropic =    30.6399   Anisotropy =     8.7674

     25  H    Isotropic =    30.0733   Anisotropy =     5.6305

     26  H    Isotropic =    30.3486   Anisotropy =    12.9445

     27  C    Isotropic =   165.1994   Anisotropy =    25.4435

     28  H    Isotropic =    30.0923   Anisotropy =     7.9120

     29  H    Isotropic =    30.2827   Anisotropy =     9.8523

     30  C    Isotropic =   177.2560   Anisotropy =    17.9882

     31  H    Isotropic =    30.5574   Anisotropy =    12.4160

     32  H    Isotropic =    30.6820   Anisotropy =     9.8711

     33  H    Isotropic =    30.5669   Anisotropy =     9.8145

     34  C    Isotropic =   160.9134   Anisotropy =    22.6972

     35  H    Isotropic =    29.8007   Anisotropy =     9.1062

     36  H    Isotropic =    28.8462   Anisotropy =    10.4255

     37  C    Isotropic =   173.7457   Anisotropy =    15.6870

     38  H    Isotropic =    30.2512   Anisotropy =    13.2051

     39  H    Isotropic =    29.9658   Anisotropy =     6.1639

     40  H    Isotropic =    30.4156   Anisotropy =     8.4238

     41  Sn   Isotropic =  2143.7591   Anisotropy =   825.3211

     42  Cl   Isotropic =   750.1225   Anisotropy =   319.5486

     43  Cl   Isotropic =   752.2810   Anisotropy =   311.7235

     44  Cl   Isotropic =   749.3327   Anisotropy =   289.8937

     45  C    Isotropic =   171.2198   Anisotropy =    20.3686

     46  H    Isotropic =    30.0969   Anisotropy =    11.8152

     47  H    Isotropic =    30.0924   Anisotropy =     9.4212

     48  H    Isotropic =    30.0999   Anisotropy =     8.6801

     49  H    Isotropic =    28.8036   Anisotropy =     8.2772

     50  C    Isotropic =     2.4188   Anisotropy =   189.6859

     51  C    Isotropic =    38.0785   Anisotropy =   156.6317

     52  C    Isotropic =    45.6086   Anisotropy =   158.0339

     53  C    Isotropic =    55.5533   Anisotropy =   142.5023

     54  H    Isotropic =    23.6151   Anisotropy =    13.5148

     55  C    Isotropic =    55.2206   Anisotropy =   152.3870

     56  H    Isotropic =    23.6782   Anisotropy =    13.6966

     57  C    Isotropic =    57.4623   Anisotropy =    87.9685

     58  H    Isotropic =    25.8120   Anisotropy =     6.1159

     59  H    Isotropic =    25.9577   Anisotropy =     5.5760

     60  Br   Isotropic =  1877.3095   Anisotropy =  1527.1718

 The electronic state is 1-A.
 Alpha  occ. eigenvalues -- ********************-478.63018-427.54000-414.87043
 Alpha  occ. eigenvalues -- -414.87007-414.86728-149.65434-141.93252-141.93248
 Alpha  occ. eigenvalues -- -141.93177-100.55463-100.55388-100.55315 -99.92051
 Alpha  occ. eigenvalues --  -92.07907 -92.07789 -92.07432 -79.03787 -79.03667
 Alpha  occ. eigenvalues --  -79.03467 -79.03409 -79.03362 -76.29956 -76.29839
 Alpha  occ. eigenvalues --  -61.54803 -55.73367 -55.72967 -55.72951 -28.81754
 Alpha  occ. eigenvalues --  -25.16391 -25.16384 -25.16156 -20.83522 -17.71293
 Alpha  occ. eigenvalues --  -17.71292 -17.71139 -17.71136 -17.71090 -17.40363
 Alpha  occ. eigenvalues --  -17.40141 -17.39382 -11.58745 -11.58320 -11.57911
 Alpha  occ. eigenvalues --  -11.57799 -11.57709  -9.95372  -9.91015  -9.90978
 Alpha  occ. eigenvalues --   -9.90962  -9.90908  -9.90896  -9.90890  -9.90869
 Alpha  occ. eigenvalues --   -9.90731  -9.90576  -9.90131  -9.90060  -9.89237
 Alpha  occ. eigenvalues --   -9.89211  -9.89148  -9.89106  -9.89083  -9.88708
 Alpha  occ. eigenvalues --   -9.13355  -9.13264  -9.13191  -8.37627  -6.97110
 Alpha  occ. eigenvalues --   -6.97013  -6.96951  -6.96558  -6.96546  -6.96476
 Alpha  occ. eigenvalues --   -6.96458  -6.96398  -6.96378  -6.32966  -6.32878
 Alpha  occ. eigenvalues --   -6.28716  -6.27554  -6.27513  -4.55499  -4.55491
 Alpha  occ. eigenvalues --   -4.55404  -4.55390  -4.55222  -4.55147  -4.50365
 Alpha  occ. eigenvalues --   -3.23807  -3.23782  -3.23378  -3.13606  -3.13571
 Alpha  occ. eigenvalues --   -3.13122  -3.12821  -3.12700  -3.12617  -3.12579
 Alpha  occ. eigenvalues --   -2.86449  -2.49601  -2.49303  -2.49280  -2.48418
 Alpha  occ. eigenvalues --   -2.48417  -1.81458  -1.81278  -1.78759  -1.02816
 Alpha  occ. eigenvalues --   -1.02810  -1.02448  -1.02403  -1.02308  -0.79850
 Alpha  occ. eigenvalues --   -0.73761  -0.73514  -0.73355  -0.72051  -0.70531
 Alpha  occ. eigenvalues --   -0.70436  -0.69719  -0.69463  -0.69207  -0.69161
 Alpha  occ. eigenvalues --   -0.68660  -0.65631  -0.61424  -0.61119  -0.57262
 Alpha  occ. eigenvalues --   -0.56921  -0.56601  -0.55753  -0.55653  -0.53558
 Alpha  occ. eigenvalues --   -0.49185  -0.48389  -0.45962  -0.43210  -0.42670
 Alpha  occ. eigenvalues --   -0.42510  -0.42185  -0.41848  -0.41643  -0.40961
 Alpha  occ. eigenvalues --   -0.40756  -0.40496  -0.38723  -0.38379  -0.38235
 Alpha  occ. eigenvalues --   -0.37996  -0.37745  -0.37335  -0.36820  -0.36678
 Alpha  occ. eigenvalues --   -0.36400  -0.35415  -0.35276  -0.34929  -0.34145
 Alpha  occ. eigenvalues --   -0.33846  -0.33593  -0.33313  -0.32766  -0.32556
 Alpha  occ. eigenvalues --   -0.32252  -0.32088  -0.31940  -0.31745  -0.31399
 Alpha  occ. eigenvalues --   -0.31338  -0.31072  -0.30749  -0.30542  -0.29164
 Alpha  occ. eigenvalues --   -0.28846  -0.28575  -0.28425  -0.28200  -0.27499
 Alpha  occ. eigenvalues --   -0.27254  -0.26616  -0.26243  -0.26184  -0.25843
 Alpha  occ. eigenvalues --   -0.25702  -0.25651  -0.25455  -0.23979  -0.23479
 Alpha  occ. eigenvalues --   -0.22518  -0.20875  -0.20308
 Alpha virt. eigenvalues --   -0.08238  -0.06498  -0.05604  -0.05198  -0.04413
 Alpha virt. eigenvalues --   -0.04302  -0.03033  -0.02228  -0.01725  -0.01572
 Alpha virt. eigenvalues --   -0.00783  -0.00414  -0.00174   0.00008   0.00565

 Mulliken charges:
               1
     1  Pt   0.291139
     2  P    0.069123
     3  P    0.195778
     4  C   -0.375244
     5  H    0.089332
     6  H    0.095961
     7  C   -0.174344
     8  H    0.109123
     9  H    0.138843
    10  H    0.111773
    11  C   -0.324881
    12  H    0.098330
    13  C   -0.308598
    14  H    0.109687
    15  H    0.088037
    16  C   -0.090018
    17  H    0.120092
    18  H    0.049798
    19  H    0.092351
    20  C   -0.370238
    21  H    0.111386
    22  H    0.079360
    23  C   -0.114322
    24  H    0.104908
    25  H    0.075253
    26  H    0.134794
    27  C   -0.415192
    28  H    0.084970
    29  H    0.080806
    30  C   -0.172449
    31  H    0.135746
    32  H    0.113782
    33  H    0.112338
    34  C   -0.422243
    35  H    0.104516
    36  H    0.092824
    37  C   -0.103773
    38  H    0.136210
    39  H    0.074936
    40  H    0.095738
    41  Sn   0.311762
    42  Cl  -0.281378
    43  Cl  -0.285807
    44  Cl  -0.223075
    45  C   -0.175276
    46  H    0.132295
    47  H    0.117318
    48  H    0.112445
    49  H    0.080493
    50  C    0.025865
    51  C   -0.157493
    52  C   -0.236233
    53  C   -0.541181
    54  H    0.049554
    55  C   -0.625365
    56  H    0.061955
    57  C    0.908215
    58  H    0.094024
    59  H    0.101885
    60  Br   0.204363
 Sum of Mulliken charges =   0.00000

 Dipole moment (field-independent basis, Debye):
    X=            -10.2175    Y=              0.4691    Z=              0.3329  Tot=             10.2336
 Quadrupole moment (field-independent basis, Debye-Ang):
   XX=           -332.1886   YY=           -222.8055   ZZ=           -249.2392
   XY=              6.7077   XZ=             -0.1542   YZ=             -1.8516

 Normal termination of Gaussian 09 at Mon Nov  4 10:23:08 2019.
