 Gaussian 09, Revision D.01,
 Gaussian 09:  EM64L-G09RevD.01 24-Apr-2013

 ----------------------------------------------------------------------
 #PBEPBE/gen scf=(maxcycle=1000,conver=4) NMR=GIAO Scrf=(solvent=Dichlo
 romethane)
 ----------------------------------------------------------------------

 ------------
 estrutura 15
 ------------
 Symbolic Z-matrix:
 Charge =  0 Multiplicity = 1

                         Standard orientation:
 ---------------------------------------------------------------------
 Center     Atomic      Atomic             Coordinates (Angstroms)
 Number     Number       Type             X           Y           Z
 ---------------------------------------------------------------------
      1         78           0        0.111872    0.633214   -0.186675
      2         50           0       -0.055932   -1.969351   -0.244762
      3         17           0        0.291194    3.049751   -0.274721
      4         17           0       -1.696641   -3.136032   -1.585507
      5         17           0        1.818832   -3.317787   -1.006228
      6         17           0       -0.464990   -3.017058    1.906520
      7         15           0       -2.309666    0.848025   -0.154694
      8         15           0        2.511935    0.545082   -0.009542
      9          6           0        3.286554    2.136073    0.535411
     10          1           0        2.957379    2.900023   -0.182856
     11          1           0        2.802012    2.408610    1.487050
     12          6           0        3.168717   -0.705744    1.187463
     13          1           0        2.902572   -1.699722    0.797187
     14          1           0        4.270013   -0.650582    1.142194
     15          6           0        3.308031    0.120898   -1.623904
     16          1           0        4.387662   -0.029107   -1.447956
     17          1           0        2.898466   -0.861999   -1.913231
     18          6           0        2.676621   -0.534452    2.630858
     19          1           0        2.999083    0.445891    3.022689
     20          1           0        1.573523   -0.523308    2.644691
     21          6           0        4.814459    2.142828    0.682536
     22          1           0        5.130753    1.407465    1.441286
     23          1           0        5.289251    1.832482   -0.264405
     24          6           0        5.340403    3.526713    1.077542
     25          1           0        4.910892    3.860175    2.037010
     26          1           0        6.436619    3.516805    1.185946
     27          1           0        5.083894    4.283082    0.317353
     28          6           0        3.183123   -1.648113    3.551974
     29          1           0        4.284811   -1.707728    3.541855
     30          1           0        2.868084   -1.474704    4.593658
     31          1           0        2.790734   -2.628574    3.239709
     32          6           0        3.076303    1.160202   -2.731132
     33          1           0        3.614596    2.090385   -2.477887
     34          1           0        2.003399    1.428187   -2.772613
     35          6           0        3.532190    0.663732   -4.105160
     36          1           0        3.439514    1.460056   -4.860676
     37          1           0        4.587250    0.335955   -4.088410
     38          1           0        2.921051   -0.192294   -4.441445
     39          6           0       -2.945818    0.089391    1.411173
     40          1           0       -4.043596    0.175126    1.433580
     41          1           0       -2.714803   -0.986852    1.366955
     42          6           0       -2.870712    2.611148   -0.127481
     43          1           0       -2.505777    3.042869   -1.073352
     44          1           0       -2.284433    3.111011    0.657128
     45          6           0       -3.219509    0.067529   -1.591579
     46          1           0       -3.558278    0.904777   -2.225041
     47          1           0       -2.444008   -0.455776   -2.166874
     48          6           0       -4.367735    2.885909    0.050664
     49          1           0       -4.718790    2.470825    1.010467
     50          1           0       -4.946602    2.378748   -0.736762
     51          6           0       -4.673696    4.386238    0.007422
     52          1           0       -5.750482    4.574501    0.142967
     53          1           0       -4.133884    4.929185    0.800468
     54          1           0       -4.374329    4.825087   -0.958651
     55          6           0       -2.326101    0.695190    2.678643
     56          1           0       -1.225410    0.656483    2.595272
     57          1           0       -2.590852    1.765074    2.750004
     58          6           0       -2.771326   -0.029475    3.950446
     59          1           0       -2.327598    0.434712    4.843625
     60          1           0       -3.870333   -0.003032    4.067070
     61          1           0       -2.459536   -1.087190    3.929441
     62          6           0       -4.376518   -0.917510   -1.324014
     63          1           0       -4.480576   -1.525277   -2.238224
     64          1           0       -4.079758   -1.636416   -0.545139
     65          6           0       -5.738315   -0.310147   -0.987974
     66          1           0       -6.085969    0.367488   -1.785834
     67          1           0       -6.492871   -1.106549   -0.877716
     68          1           0       -5.729888    0.261046   -0.046608
 ---------------------------------------------------------------------

 SCF Done:  E(RPBE-PBE) =  -26324.1066592     A.U. after    8 cycles

      1  Pt   Isotropic =  3003.0991   Anisotropy =  1795.0093

      2  Sn   Isotropic =  2084.7264   Anisotropy =   908.8173

      3  Cl   Isotropic =   903.8006   Anisotropy =   281.0128

      4  Cl   Isotropic =   756.9130   Anisotropy =   281.8651

      5  Cl   Isotropic =   738.7852   Anisotropy =   292.2770

      6  Cl   Isotropic =   748.4715   Anisotropy =   342.7012

      7  P    Isotropic =   283.3381   Anisotropy =    45.1409

      8  P    Isotropic =   271.4855   Anisotropy =    65.0974

      9  C    Isotropic =   153.7436   Anisotropy =    48.1477

     10  H    Isotropic =    28.3446   Anisotropy =     8.8318

     11  H    Isotropic =    29.7195   Anisotropy =     5.8703

     12  C    Isotropic =   145.1199   Anisotropy =    31.4227

     13  H    Isotropic =    28.8747   Anisotropy =     8.4322

     14  H    Isotropic =    29.0956   Anisotropy =     8.5599

     15  C    Isotropic =   148.5643   Anisotropy =    31.7240

     16  H    Isotropic =    29.3649   Anisotropy =     8.0753

     17  H    Isotropic =    29.1652   Anisotropy =     8.1751

     18  C    Isotropic =   158.8032   Anisotropy =    19.4273

     19  H    Isotropic =    29.8385   Anisotropy =     6.7717

     20  H    Isotropic =    30.0143   Anisotropy =     8.8673

     21  C    Isotropic =   162.5521   Anisotropy =    12.9203

     22  H    Isotropic =    30.0133   Anisotropy =     6.2709

     23  H    Isotropic =    30.1216   Anisotropy =     6.5406

     24  C    Isotropic =   165.8592   Anisotropy =    34.0453

     25  H    Isotropic =    30.5432   Anisotropy =     8.7857

     26  H    Isotropic =    30.0188   Anisotropy =    12.6559

     27  H    Isotropic =    30.4773   Anisotropy =     8.7045

     28  C    Isotropic =   165.9425   Anisotropy =    33.6413

     29  H    Isotropic =    30.5326   Anisotropy =    11.0716

     30  H    Isotropic =    30.1523   Anisotropy =    11.9775

     31  H    Isotropic =    30.4071   Anisotropy =     6.0021

     32  C    Isotropic =   159.2882   Anisotropy =    17.1183

     33  H    Isotropic =    29.8761   Anisotropy =     6.5089

     34  H    Isotropic =    29.6380   Anisotropy =    11.0742

     35  C    Isotropic =   165.3857   Anisotropy =    34.7338

     36  H    Isotropic =    30.1019   Anisotropy =    12.2736

     37  H    Isotropic =    30.4856   Anisotropy =    10.4319

     38  H    Isotropic =    30.4621   Anisotropy =     7.5494

     39  C    Isotropic =   150.2975   Anisotropy =    15.9577

     40  H    Isotropic =    29.3842   Anisotropy =     7.9819

     41  H    Isotropic =    29.4827   Anisotropy =     5.5759

     42  C    Isotropic =   149.3217   Anisotropy =    28.1461

     43  H    Isotropic =    29.5465   Anisotropy =     6.6769

     44  H    Isotropic =    28.6770   Anisotropy =     7.7854

     45  C    Isotropic =   148.5655   Anisotropy =    29.3648

     46  H    Isotropic =    29.4463   Anisotropy =     8.2646

     47  H    Isotropic =    28.4296   Anisotropy =     5.2249

     48  C    Isotropic =   159.9342   Anisotropy =    11.3429

     49  H    Isotropic =    29.9823   Anisotropy =     5.5000

     50  H    Isotropic =    29.8452   Anisotropy =     7.4097

     51  C    Isotropic =   165.2940   Anisotropy =    34.8198

     52  H    Isotropic =    29.9646   Anisotropy =    12.4025

     53  H    Isotropic =    30.4508   Anisotropy =     8.5330

     54  H    Isotropic =    30.5201   Anisotropy =     9.0777

     55  C    Isotropic =   159.1607   Anisotropy =    18.0857

     56  H    Isotropic =    29.4930   Anisotropy =    11.3400

     57  H    Isotropic =    30.0264   Anisotropy =     5.9597

     58  C    Isotropic =   165.7313   Anisotropy =    33.5245

     59  H    Isotropic =    30.1369   Anisotropy =    11.9423

     60  H    Isotropic =    30.4610   Anisotropy =    10.9305

     61  H    Isotropic =    30.2616   Anisotropy =     6.2206

     62  C    Isotropic =   155.9628   Anisotropy =    14.6151

     63  H    Isotropic =    29.1362   Anisotropy =     9.9528

     64  H    Isotropic =    29.7920   Anisotropy =     6.6191

     65  C    Isotropic =   163.7869   Anisotropy =    24.9320

     66  H    Isotropic =    30.5296   Anisotropy =    10.0222

     67  H    Isotropic =    30.0523   Anisotropy =    12.2561

     68  H    Isotropic =    30.6618   Anisotropy =     3.8574

 The electronic state is 1-A.
 Alpha  occ. eigenvalues -- ********************-427.54230-414.87296-414.87216
 Alpha  occ. eigenvalues -- -414.86949-149.66506-141.94320-141.94313-141.94239
 Alpha  occ. eigenvalues -- -100.56436-100.56395-100.56368-100.52893 -99.92272
 Alpha  occ. eigenvalues --  -92.08177 -92.08002 -92.07613 -79.04041 -79.03910
 Alpha  occ. eigenvalues --  -79.03699 -79.03600 -79.03553 -76.30400 -76.30268
 Alpha  occ. eigenvalues --  -28.82906 -25.17550 -25.17532 -25.17296 -20.83720
 Alpha  occ. eigenvalues --  -17.72437 -17.72437 -17.72277 -17.72268 -17.72222
 Alpha  occ. eigenvalues --  -17.40650 -17.40323 -17.39499 -11.59013 -11.58557
 Alpha  occ. eigenvalues --  -11.58130 -11.57929 -11.57833  -9.90884  -9.90682
 Alpha  occ. eigenvalues --   -9.90600  -9.90517  -9.90340  -9.90313  -9.89935
 Alpha  occ. eigenvalues --   -9.89900  -9.89804  -9.89792  -9.89742  -9.89586
 Alpha  occ. eigenvalues --   -9.88150  -9.88103  -9.88098  -9.88096  -9.88068
 Alpha  occ. eigenvalues --   -9.87980  -9.14307  -9.14269  -9.14226  -9.10742
 Alpha  occ. eigenvalues --   -6.98096  -6.98067  -6.98013  -6.97499  -6.97479
 Alpha  occ. eigenvalues --   -6.97459  -6.97432  -6.97424  -6.97398  -6.94520
 Alpha  occ. eigenvalues --   -6.93988  -6.93876  -6.33430  -6.33340  -4.55953
 Alpha  occ. eigenvalues --   -4.55937  -4.55848  -4.55841  -4.55713  -4.55637
 Alpha  occ. eigenvalues --   -4.51645  -3.25110  -3.25064  -3.24667  -3.13867
 Alpha  occ. eigenvalues --   -3.13825  -3.13349  -3.13014  -3.12889  -3.12730
 Alpha  occ. eigenvalues --   -3.12697  -2.86663  -1.81790  -1.81432  -1.78920
 Alpha  occ. eigenvalues --   -1.04165  -1.04150  -1.03776  -1.03710  -1.03657
 Alpha  occ. eigenvalues --   -0.74538  -0.74401  -0.73179  -0.71924  -0.71849
 Alpha  occ. eigenvalues --   -0.71677  -0.71583  -0.71429  -0.71256  -0.68348
 Alpha  occ. eigenvalues --   -0.66325  -0.66197  -0.62513  -0.62062  -0.61988
 Alpha  occ. eigenvalues --   -0.61936  -0.55467  -0.55181  -0.54276  -0.54006
 Alpha  occ. eigenvalues --   -0.53464  -0.52913  -0.49520  -0.48720  -0.43967
 Alpha  occ. eigenvalues --   -0.43266  -0.43135  -0.42700  -0.42325  -0.41496
 Alpha  occ. eigenvalues --   -0.41307  -0.40529  -0.39571  -0.39156  -0.38936
 Alpha  occ. eigenvalues --   -0.38098  -0.37992  -0.37578  -0.37232  -0.37014
 Alpha  occ. eigenvalues --   -0.36793  -0.35935  -0.35057  -0.34825  -0.34744
 Alpha  occ. eigenvalues --   -0.34444  -0.34230  -0.34170  -0.33711  -0.33365
 Alpha  occ. eigenvalues --   -0.33165  -0.33053  -0.32264  -0.31690  -0.31369
 Alpha  occ. eigenvalues --   -0.31234  -0.30738  -0.30650  -0.30566  -0.30315
 Alpha  occ. eigenvalues --   -0.30061  -0.29873  -0.29739  -0.29653  -0.29456
 Alpha  occ. eigenvalues --   -0.29386  -0.29071  -0.28849  -0.28441  -0.28320
 Alpha  occ. eigenvalues --   -0.28146  -0.28104  -0.27712  -0.27635  -0.26926
 Alpha  occ. eigenvalues --   -0.26688  -0.26276  -0.25905  -0.24320  -0.23816
 Alpha  occ. eigenvalues --   -0.22718  -0.22106  -0.21648
 Alpha virt. eigenvalues --   -0.11464  -0.06415  -0.05012  -0.03427  -0.02218
 Alpha virt. eigenvalues --   -0.01673  -0.01314  -0.01191  -0.00569  -0.00362
 Alpha virt. eigenvalues --   -0.00057   0.00066   0.01162   0.01419   0.01681

 Mulliken charges:
               1
     1  Pt   0.403227
     2  Sn   0.313541
     3  Cl  -0.499177
     4  Cl  -0.183248
     5  Cl  -0.189611
     6  Cl  -0.237881
     7  P    0.011691
     8  P    0.128318
     9  C   -0.315828
    10  H    0.085934
    11  H    0.077763
    12  C   -0.284520
    13  H    0.059501
    14  H    0.088044
    15  C   -0.256817
    16  H    0.093253
    17  H    0.061946
    18  C   -0.117211
    19  H    0.091517
    20  H    0.051145
    21  C   -0.173193
    22  H    0.097825
    23  H    0.097479
    24  C   -0.302634
    25  H    0.135587
    26  H    0.143511
    27  H    0.135312
    28  C   -0.260352
    29  H    0.137516
    30  H    0.138349
    31  H    0.115503
    32  C   -0.113271
    33  H    0.089005
    34  H    0.059601
    35  C   -0.289270
    36  H    0.144879
    37  H    0.138484
    38  H    0.122484
    39  C   -0.209224
    40  H    0.082465
    41  H    0.060382
    42  C   -0.335683
    43  H    0.085164
    44  H    0.087423
    45  C   -0.197680
    46  H    0.085653
    47  H    0.096893
    48  C   -0.102984
    49  H    0.082362
    50  H    0.080428
    51  C   -0.311426
    52  H    0.145077
    53  H    0.134159
    54  H    0.135427
    55  C   -0.118784
    56  H    0.039859
    57  H    0.085887
    58  C   -0.229904
    59  H    0.138534
    60  H    0.136126
    61  H    0.105789
    62  C   -0.171450
    63  H    0.116093
    64  H    0.064637
    65  C   -0.246686
    66  H    0.121000
    67  H    0.137829
    68  H    0.104233
 Sum of Mulliken charges =   0.00000

 Dipole moment (field-independent basis, Debye):
    X=             -0.0951    Y=              6.5345    Z=              1.0612  Tot=              6.6208
 Quadrupole moment (field-independent basis, Debye-Ang):
   XX=           -211.5622   YY=           -296.6651   ZZ=           -250.1346
   XY=             -2.6929   XZ=              2.4085   YZ=             -0.6545

 1\1\GINC-NEQC17\SP\RPBEPBE\Gen\C18H42Cl4P2Pt1Sn1\DIEGO\06-Sep-2018\0\\
 #PBEPBE/gen scf=(maxcycle=1000,conver=4) NMR=GIAO Scrf=(solvent=Dichlo
 romethane)\\estrutura 15\\0,1\Pt,0,0.111872,0.633214,-0.186675\Sn,0,-0
 .055932,-1.969351,-0.244762\Cl,0,0.291194,3.049751,-0.274721\Cl,0,-1.6
 96641,-3.136032,-1.585507\Cl,0,1.818832,-3.317787,-1.006228\Cl,0,-0.46
 499,-3.017058,1.90652\P,0,-2.309666,0.848025,-0.154694\P,0,2.511935,0.
 545082,-0.009542\C,0,3.286554,2.136073,0.535411\H,0,2.957379,2.900023,
 -0.182856\H,0,2.802012,2.40861,1.48705\C,0,3.168717,-0.705744,1.187463

 Normal termination of Gaussian 09 at Thu Sep  6 18:00:26 2018.
