 Gaussian 09, Revision A.02,
 Gaussian 09:  EM64L-G09RevA.02 11-Jun-2009

 ----------------------------------------------------------------------
 #PBEPBE/gen scf=(maxcycle=500,conver=4) NMR=GIAO Scrf=(solvent=chlorof
 orm)
 ----------------------------------------------------------------------

 ------------
 estrutura 21
 ------------
 Symbolic Z-matrix:
 Charge = -1 Multiplicity = 1

                         Standard orientation:
 ---------------------------------------------------------------------
 Center     Atomic      Atomic             Coordinates (Angstroms)
 Number     Number       Type             X           Y           Z
 ---------------------------------------------------------------------
      1         50           0        0.976275    2.513382    0.007111
      2         50           0       -2.671090   -0.414335   -0.003643
      3         17           0       -4.090526    1.571373   -0.112453
      4         17           0       -3.786201   -1.569606    1.851884
      5         17           0       -3.640392   -1.688822   -1.865368
      6         17           0        3.415288    2.692065   -0.139942
      7         17           0        0.356870    4.046770   -1.813842
      8         17           0        0.598955    4.020563    1.912639
      9         33           0       -0.018295   -0.011004    2.517400
     10          6           0        1.632247    0.602877    3.358238
     11          1           0        1.757156    1.675943    3.162063
     12          1           0        1.546480    0.432609    4.441686
     13          1           0        2.477164    0.029859    2.955614
     14          6           0       -1.376925    1.117159    3.347819
     15          1           0       -2.369964    0.692882    3.148957
     16          1           0       -1.193697    1.135820    4.432416
     17          1           0       -1.295536    2.132068    2.937949
     18          6           0       -0.315319   -1.751803    3.349380
     19          1           0        0.545571   -2.401038    3.142698
     20          1           0       -0.411612   -1.600398    4.434431
     21          1           0       -1.239342   -2.187314    2.947736
     22         78           0       -0.015638   -0.002135    0.020912
     23         33           0       -0.002518    0.006794   -2.478366
     24          6           0       -0.165867   -1.752709   -3.318532
     25          1           0       -0.485975   -1.604905   -4.360074
     26          1           0        0.817799   -2.241022   -3.291385
     27          1           0       -0.910781   -2.349352   -2.779027
     28          6           0        1.607711    0.740603   -3.305875
     29          1           0        1.592561    0.474125   -4.373235
     30          1           0        1.595797    1.832946   -3.195951
     31          1           0        2.496086    0.310491   -2.826254
     32          6           0       -1.430255    1.046113   -3.312488
     33          1           0       -1.165136    1.206755   -4.367852
     34          1           0       -2.366324    0.476600   -3.245034
     35          1           0       -1.525387    2.011633   -2.800986
     36         50           0        1.713502   -2.078901    0.000347
     37         17           0        3.326605   -2.317802   -1.839893
     38         17           0        0.683446   -4.297708   -0.133424
     39         17           0        3.218180   -2.500539    1.894222
 ---------------------------------------------------------------------

 SCF Done:  E(RPBE-PBE) =  -43892.5507951     A.U. after   10 cycles

  1  Sn   Isotropic =  2122.3407   Anisotropy =   811.6710

  2  Sn   Isotropic =  2116.4615   Anisotropy =   825.4472

  3  Cl   Isotropic =   714.6721   Anisotropy =   391.9458

  4  Cl   Isotropic =   735.5064   Anisotropy =   326.3157

  5  Cl   Isotropic =   727.9637   Anisotropy =   333.9446

  6  Cl   Isotropic =   709.5752   Anisotropy =   397.8825

  7  Cl   Isotropic =   731.2937   Anisotropy =   334.7721

  8  Cl   Isotropic =   734.6616   Anisotropy =   326.3961

  9  As   Isotropic =  1056.4455   Anisotropy =   174.8377

 10  C    Isotropic =   157.3633   Anisotropy =    43.7336

 11  H    Isotropic =    29.2659   Anisotropy =     8.4195

 12  H    Isotropic =    30.1449   Anisotropy =    15.2562

 13  H    Isotropic =    28.9584   Anisotropy =     7.9796

 14  C    Isotropic =   157.4655   Anisotropy =    43.6250

 15  H    Isotropic =    29.3694   Anisotropy =     8.3128

 16  H    Isotropic =    30.1352   Anisotropy =    15.2927

 17  H    Isotropic =    29.0147   Anisotropy =     7.8411

 18  C    Isotropic =   157.6204   Anisotropy =    43.4028

 19  H    Isotropic =    29.3604   Anisotropy =     8.3509

 20  H    Isotropic =    30.1487   Anisotropy =    15.2822

 21  H    Isotropic =    28.9829   Anisotropy =     8.0699

 22  Pt   Isotropic =  3586.5645   Anisotropy =   571.0273

 23  As   Isotropic =  1062.0260   Anisotropy =   159.6147

 24  C    Isotropic =   157.6818   Anisotropy =    42.0193

 25  H    Isotropic =    30.0125   Anisotropy =    14.9866

 26  H    Isotropic =    29.1400   Anisotropy =     8.6412

 27  H    Isotropic =    29.1723   Anisotropy =     6.5912

 28  C    Isotropic =   157.5660   Anisotropy =    41.3522

 29  H    Isotropic =    30.0216   Anisotropy =    15.1057

 30  H    Isotropic =    29.1543   Anisotropy =     8.3529

 31  H    Isotropic =    29.0419   Anisotropy =     7.1029

 32  C    Isotropic =   157.7860   Anisotropy =    42.1385

 33  H    Isotropic =    30.0559   Anisotropy =    15.0643

 34  H    Isotropic =    29.0703   Anisotropy =     8.4387

 35  H    Isotropic =    29.1208   Anisotropy =     6.9649

 36  Sn   Isotropic =  2121.9631   Anisotropy =   817.3552

 37  Cl   Isotropic =   728.9607   Anisotropy =   337.5213

 38  Cl   Isotropic =   707.4574   Anisotropy =   399.4564

 39  Cl   Isotropic =   735.7812   Anisotropy =   325.5115

 The electronic state is 1-A.
 Alpha  occ. eigenvalues -- ****************************************-427.55631
 Alpha  occ. eigenvalues -- -422.28772-422.28618-414.88692-414.88484-414.88476
 Alpha  occ. eigenvalues -- -149.64287-149.64271-149.64242-141.92098-141.92091
 Alpha  occ. eigenvalues -- -141.92082-141.92077-141.92054-141.92047-141.92034
 Alpha  occ. eigenvalues -- -141.92019-141.91991-100.54337-100.54325-100.54287
 Alpha  occ. eigenvalues -- -100.54237-100.54227-100.54225-100.54060-100.53954
 Alpha  occ. eigenvalues -- -100.53895 -99.93679 -92.09595 -92.09213 -92.09201
 Alpha  occ. eigenvalues --  -79.05382 -79.05223 -79.05216 -79.05009 -79.05008
 Alpha  occ. eigenvalues --  -53.00439 -53.00294 -47.59694 -47.59693 -47.59652
 Alpha  occ. eigenvalues --  -47.59547 -47.59547 -47.59505 -28.80656 -28.80636
 Alpha  occ. eigenvalues --  -28.80608 -25.15280 -25.15265 -25.15257 -25.15247
 Alpha  occ. eigenvalues --  -25.15230 -25.15216 -25.15086 -25.15067 -25.15041
 Alpha  occ. eigenvalues --  -20.85153 -17.70167 -17.70166 -17.70146 -17.70146
 Alpha  occ. eigenvalues --  -17.70117 -17.70117 -17.70046 -17.70036 -17.70025
 Alpha  occ. eigenvalues --  -17.70018 -17.70002 -17.69998 -17.69989 -17.69983
 Alpha  occ. eigenvalues --  -17.69956 -17.42106 -17.41347 -17.41321 -11.60270
 Alpha  occ. eigenvalues --  -11.59807 -11.59792 -11.59386 -11.59385  -9.89227
 Alpha  occ. eigenvalues --   -9.89220  -9.89218  -9.89207  -9.89198  -9.89179
 Alpha  occ. eigenvalues --   -9.12189  -9.12175  -9.12137  -9.12087  -9.12086
 Alpha  occ. eigenvalues --   -9.12075  -9.11911  -9.11802  -9.11746  -6.95960
 Alpha  occ. eigenvalues --   -6.95945  -6.95905  -6.95857  -6.95855  -6.95844
 Alpha  occ. eigenvalues --   -6.95687  -6.95575  -6.95519  -6.95389  -6.95379
 Alpha  occ. eigenvalues --   -6.95376  -6.95365  -6.95338  -6.95329  -6.95289
 Alpha  occ. eigenvalues --   -6.95287  -6.95278  -6.95275  -6.95273  -6.95265
 Alpha  occ. eigenvalues --   -6.95113  -6.95093  -6.95006  -6.94986  -6.94949
 Alpha  occ. eigenvalues --   -6.94930  -6.72625  -6.72502  -4.85418  -4.85416
 Alpha  occ. eigenvalues --   -4.85298  -4.85296  -4.85295  -4.85172  -4.49346
 Alpha  occ. eigenvalues --   -4.49315  -4.49288  -3.22775  -3.22741  -3.22729
 Alpha  occ. eigenvalues --   -3.22715  -3.22702  -3.22669  -3.22430  -3.22397
 Alpha  occ. eigenvalues --   -3.22373  -3.15128  -3.14944  -3.14927  -3.14497
 Alpha  occ. eigenvalues --   -3.14495  -3.14231  -3.14229  -2.88127  -1.83231
 Alpha  occ. eigenvalues --   -1.81693  -1.81612  -1.53253  -1.53253  -1.53136
 Alpha  occ. eigenvalues --   -1.53135  -1.53126  -1.53122  -1.53103  -1.53004
 Alpha  occ. eigenvalues --   -1.53002  -1.52979  -1.01789  -1.01781  -1.01749
 Alpha  occ. eigenvalues --   -1.01741  -1.01721  -1.01711  -1.01456  -1.01425
 Alpha  occ. eigenvalues --   -1.01418  -1.01396  -1.01391  -1.01373  -1.01358
 Alpha  occ. eigenvalues --   -1.01321  -1.01300  -0.70837  -0.70736  -0.70691
 Alpha  occ. eigenvalues --   -0.69667  -0.69366  -0.69317  -0.69293  -0.69117
 Alpha  occ. eigenvalues --   -0.69026  -0.68979  -0.68925  -0.62534  -0.62524
 Alpha  occ. eigenvalues --   -0.62507  -0.62495  -0.50901  -0.49812  -0.41437
 Alpha  occ. eigenvalues --   -0.40737  -0.40696  -0.39269  -0.39105  -0.38422
 Alpha  occ. eigenvalues --   -0.38398  -0.38098  -0.38084  -0.36188  -0.36156
 Alpha  occ. eigenvalues --   -0.35988  -0.35957  -0.35194  -0.35131  -0.33549
 Alpha  occ. eigenvalues --   -0.31790  -0.31720  -0.31321  -0.31267  -0.30801
 Alpha  occ. eigenvalues --   -0.30572  -0.30439  -0.30421  -0.30234  -0.30193
 Alpha  occ. eigenvalues --   -0.29944  -0.29613  -0.29602  -0.27643  -0.27610
 Alpha  occ. eigenvalues --   -0.26651  -0.26602  -0.26310  -0.26175  -0.26140
 Alpha  occ. eigenvalues --   -0.26122  -0.26080  -0.26057  -0.25444  -0.25103
 Alpha  occ. eigenvalues --   -0.24861  -0.24812  -0.24803  -0.24802  -0.24638
 Alpha  occ. eigenvalues --   -0.24561  -0.24517  -0.24468  -0.23931  -0.19008
 Alpha  occ. eigenvalues --   -0.18840
 Alpha virt. eigenvalues --   -0.11430  -0.05246  -0.05100  -0.03714  -0.03695
 Alpha virt. eigenvalues --   -0.03566  -0.03047  -0.01686  -0.01602  -0.01535
 Alpha virt. eigenvalues --   -0.00066  -0.00027   0.00723   0.00754   0.01640

 Mulliken atomic charges:
              1
     1  Sn   0.594920
     2  Sn   0.579128
     3  Cl  -0.235955
     4  Cl  -0.228657
     5  Cl  -0.238282
     6  Cl  -0.246752
     7  Cl  -0.245398
     8  Cl  -0.234775
     9  As   0.471364
    10  C   -0.455317
    11  H    0.157789
    12  H    0.165189
    13  H    0.164663
    14  C   -0.457498
    15  H    0.157110
    16  H    0.166048
    17  H    0.165618
    18  C   -0.454636
    19  H    0.157178
    20  H    0.165939
    21  H    0.165058
    22  Pt  -1.729463
    23  As   0.462908
    24  C   -0.456654
    25  H    0.162888
    26  H    0.161503
    27  H    0.165471
    28  C   -0.462557
    29  H    0.163290
    30  H    0.159541
    31  H    0.167301
    32  C   -0.459170
    33  H    0.162414
    34  H    0.160346
    35  H    0.166965
    36  Sn   0.581783
    37  Cl  -0.244260
    38  Cl  -0.245413
    39  Cl  -0.229628
 Sum of Mulliken atomic charges =  -1.00000

 Dipole moment (field-independent basis, Debye):
    X=             -0.2317    Y=              0.0563    Z=              0.4412  Tot=              0.5015
 Quadrupole moment (field-independent basis, Debye-Ang):
   XX=           -392.6296   YY=           -392.7109   ZZ=           -283.3022
   XY=             -0.1495   XZ=             -0.3000   YZ=             -0.3445

 Normal termination of Gaussian 09 at Sun Jul  5 03:03:15 2020.
