 Gaussian 09, Revision D.01,
 Gaussian 09:  EM64L-G09RevD.01 24-Apr-2013

 ----------------------------------------------------------------------
 #PBEPBE/gen scf=(maxcycle=1000,conver=4) NMR=GIAO scrf=(solvent=dichlo
 romethane)
 ----------------------------------------------------------------------

 ------------
 estrutura 34
 ------------
 Symbolic Z-matrix:
 Charge = -1 Multiplicity = 1

                         Standard orientation:
 ---------------------------------------------------------------------
 Center     Atomic      Atomic             Coordinates (Angstroms)
 Number     Number       Type             X           Y           Z
 ---------------------------------------------------------------------
      1         78           0       -0.022297   -0.116523   -0.274042
      2         17           0       -0.116402   -2.492258   -0.846554
      3         50           0        2.573845   -0.590989    0.004708
      4         50           0       -2.598437   -0.490340    0.124117
      5         17           0       -3.133661   -2.250689    1.690333
      6         17           0       -3.995818   -1.098724   -1.763116
      7         17           0       -4.000172    1.264589    1.120818
      8         17           0        3.043663   -2.449825    1.490674
      9         17           0        4.157951    0.976172    1.044924
     10         17           0        3.886845   -1.229035   -1.940487
     11         15           0       -0.029799    2.164542    0.029458
     12          6           0       -1.370878    2.993239   -0.940050
     13          1           0       -1.275158    4.075356   -0.756508
     14          6           0       -0.325398    2.709187    1.768875
     15          1           0       -0.281052    3.811036    1.781038
     16          1           0       -1.369786    2.431703    1.985314
     17          6           0        0.622416    2.101420    2.805282
     18          1           0        0.530299    1.005390    2.829288
     19          1           0        1.676302    2.343221    2.603139
     20          1           0        0.377568    2.482446    3.808535
     21          6           0        1.525763    2.980492   -0.557508
     22          1           0        2.347580    2.563593    0.042791
     23          1           0        1.681988    2.611273   -1.584942
     24          6           0        1.561884    4.513038   -0.516388
     25          1           0        1.440394    4.899721    0.507786
     26          1           0        2.537940    4.865546   -0.884062
     27          1           0        0.789255    4.973344   -1.151140
     28          1           0       -2.325533    2.687938   -0.486897
     29          6           0       -1.346323    2.682386   -2.436784
     30          1           0       -0.383187    2.951026   -2.901770
     31          1           0       -1.521509    1.610527   -2.625536
     32          1           0       -2.135005    3.252529   -2.957544
 ---------------------------------------------------------------------

 SCF Done:  E(RPBE-PBE) =  -32869.9994037     A.U. after    8 cycles

      1  Pt   Isotropic =  3037.0226   Anisotropy =  2427.0558

      2  Cl   Isotropic =  1070.4155   Anisotropy =  1005.0325

      3  Sn   Isotropic =  2193.1172   Anisotropy =   680.2434

      4  Sn   Isotropic =  2183.4835   Anisotropy =   666.4328

      5  Cl   Isotropic =   761.6632   Anisotropy =   328.1935

      6  Cl   Isotropic =   777.9816   Anisotropy =   331.9597

      7  Cl   Isotropic =   755.6115   Anisotropy =   309.9337

      8  Cl   Isotropic =   760.6080   Anisotropy =   323.3405

      9  Cl   Isotropic =   738.4555   Anisotropy =   322.6537

     10  Cl   Isotropic =   778.7801   Anisotropy =   333.7017

     11  P    Isotropic =   225.1944   Anisotropy =   122.5550

     12  C    Isotropic =   154.3186   Anisotropy =    25.4096

     13  H    Isotropic =    29.4842   Anisotropy =     9.6495

     14  C    Isotropic =   155.1794   Anisotropy =    23.6851

     15  H    Isotropic =    29.2817   Anisotropy =    10.1636

     16  H    Isotropic =    29.3091   Anisotropy =     8.4264

     17  C    Isotropic =   170.3071   Anisotropy =    17.1473

     18  H    Isotropic =    30.3751   Anisotropy =     4.6120

     19  H    Isotropic =    30.1927   Anisotropy =     7.6237

     20  H    Isotropic =    30.1150   Anisotropy =    13.3830

     21  C    Isotropic =   154.9653   Anisotropy =    50.8485

     22  H    Isotropic =    27.9804   Anisotropy =    14.2585

     23  H    Isotropic =    29.3291   Anisotropy =     4.2766

     24  C    Isotropic =   174.1847   Anisotropy =    23.1394

     25  H    Isotropic =    30.3576   Anisotropy =     9.7344

     26  H    Isotropic =    30.1975   Anisotropy =    12.7946

     27  H    Isotropic =    30.3640   Anisotropy =     9.9445

     28  H    Isotropic =    28.8646   Anisotropy =     9.8215

     29  C    Isotropic =   172.8076   Anisotropy =    17.9061

     30  H    Isotropic =    30.4652   Anisotropy =     8.7767

     31  H    Isotropic =    29.9771   Anisotropy =     6.3669

     32  H    Isotropic =    30.0933   Anisotropy =    13.4316

 The electronic state is 1-A.
 Alpha  occ. eigenvalues -- ******************************-427.53650-414.86697
 Alpha  occ. eigenvalues -- -414.86628-414.86381-149.65291-149.65032-141.93105
 Alpha  occ. eigenvalues -- -141.93094-141.93034-141.92846-141.92836-141.92774
 Alpha  occ. eigenvalues -- -100.55228-100.55215-100.55104-100.55036-100.54873
 Alpha  occ. eigenvalues -- -100.54863-100.52652 -99.91707 -92.07564 -92.07464
 Alpha  occ. eigenvalues --  -92.07064 -79.03449 -79.03333 -79.03108 -79.03065
 Alpha  occ. eigenvalues --  -79.02998 -76.30893 -28.81680 -28.81418 -25.16324
 Alpha  occ. eigenvalues --  -25.16284 -25.16091 -25.16060 -25.16024 -25.15827
 Alpha  occ. eigenvalues --  -20.83158 -17.71200 -17.71198 -17.71069 -17.71042
 Alpha  occ. eigenvalues --  -17.71010 -17.70938 -17.70937 -17.70805 -17.70781
 Alpha  occ. eigenvalues --  -17.70747 -17.40007 -17.39807 -17.38968 -11.58402
 Alpha  occ. eigenvalues --  -11.57988 -11.57514 -11.57448 -11.57295  -9.90643
 Alpha  occ. eigenvalues --   -9.90633  -9.90503  -9.88875  -9.88791  -9.88451
 Alpha  occ. eigenvalues --   -9.13096  -9.13079  -9.12966  -9.12906  -9.12738
 Alpha  occ. eigenvalues --   -9.12733  -9.10484  -6.96888  -6.96885  -6.96724
 Alpha  occ. eigenvalues --   -6.96691  -6.96534  -6.96494  -6.96284  -6.96271
 Alpha  occ. eigenvalues --   -6.96267  -6.96242  -6.96170  -6.96162  -6.96099
 Alpha  occ. eigenvalues --   -6.96085  -6.95933  -6.95932  -6.95929  -6.95903
 Alpha  occ. eigenvalues --   -6.94238  -6.93691  -6.93687  -6.33865  -4.56362
 Alpha  occ. eigenvalues --   -4.56347  -4.56219  -4.50399  -4.50128  -3.23841
 Alpha  occ. eigenvalues --   -3.23786  -3.23575  -3.23518  -3.23470  -3.23189
 Alpha  occ. eigenvalues --   -3.13269  -3.13233  -3.12760  -3.12468  -3.12297
 Alpha  occ. eigenvalues --   -3.12240  -3.12177  -2.86160  -1.81353  -1.80913
 Alpha  occ. eigenvalues --   -1.78491  -1.02880  -1.02846  -1.02599  -1.02573
 Alpha  occ. eigenvalues --   -1.02534  -1.02479  -1.02423  -1.02257  -1.02202
 Alpha  occ. eigenvalues --   -1.02132  -0.73604  -0.71852  -0.71606  -0.70278
 Alpha  occ. eigenvalues --   -0.70187  -0.70059  -0.69906  -0.69365  -0.69002
 Alpha  occ. eigenvalues --   -0.67899  -0.61058  -0.57199  -0.55330  -0.49045
 Alpha  occ. eigenvalues --   -0.43074  -0.42311  -0.41729  -0.41260  -0.40208
 Alpha  occ. eigenvalues --   -0.38110  -0.37603  -0.37040  -0.36490  -0.34714
 Alpha  occ. eigenvalues --   -0.33240  -0.33084  -0.32832  -0.32231  -0.32134
 Alpha  occ. eigenvalues --   -0.32012  -0.31826  -0.31759  -0.31135  -0.30624
 Alpha  occ. eigenvalues --   -0.30368  -0.29347  -0.28680  -0.27827  -0.27633
 Alpha  occ. eigenvalues --   -0.27118  -0.27100  -0.26964  -0.26872  -0.26799
 Alpha  occ. eigenvalues --   -0.26450  -0.25894  -0.25719  -0.25655  -0.25525
 Alpha  occ. eigenvalues --   -0.25411  -0.25173  -0.25038  -0.23240  -0.22277
 Alpha  occ. eigenvalues --   -0.21614  -0.19803
 Alpha virt. eigenvalues --   -0.11640  -0.06296  -0.03775  -0.03620  -0.02329
 Alpha virt. eigenvalues --   -0.02027  -0.01699  -0.01392   0.00034   0.00275
 Alpha virt. eigenvalues --    0.00526   0.01099   0.01513   0.01625   0.01778

 Mulliken charges:
               1
     1  Pt   0.153161
     2  Cl  -0.504564
     3  Sn   0.329879
     4  Sn   0.350000
     5  Cl  -0.218827
     6  Cl  -0.231592
     7  Cl  -0.248333
     8  Cl  -0.229164
     9  Cl  -0.261909
    10  Cl  -0.247920
    11  P    0.065369
    12  C   -0.384065
    13  H    0.112063
    14  C   -0.373212
    15  H    0.111976
    16  H    0.093849
    17  C   -0.114570
    18  H    0.076984
    19  H    0.096352
    20  H    0.135582
    21  C   -0.333686
    22  H    0.076127
    23  H    0.100537
    24  C   -0.214882
    25  H    0.115557
    26  H    0.144152
    27  H    0.118417
    28  H    0.089165
    29  C   -0.128668
    30  H    0.104199
    31  H    0.081163
    32  H    0.136862
 Sum of Mulliken charges =  -1.00000

 Dipole moment (field-independent basis, Debye):
    X=             -0.2064    Y=             16.0117    Z=             -0.6170  Tot=             16.0249
 Quadrupole moment (field-independent basis, Debye-Ang):
   XX=           -322.7572   YY=           -238.8941   ZZ=           -242.1319
   XY=              3.1905   XZ=              1.5298   YZ=             -4.1547

 Normal termination of Gaussian 09 at Thu May 30 03:18:41 2019.
