 Gaussian 09, Revision D.01,
 Gaussian 09:  EM64L-G09RevD.01 24-Apr-2013

 ----------------------------------------------------------------------
 #PBEPBE/gen scf=(maxcycle=500,conver=3) NMR=GIAO Scrf=(solvent=Dichlor
 omethane)
 ----------------------------------------------------------------------

 ------------
 estrutura 96
 ------------
 Symbolic Z-matrix:
 Charge =  0 Multiplicity = 1

                         Standard orientation:
 ---------------------------------------------------------------------
 Center     Atomic      Atomic             Coordinates (Angstroms)
 Number     Number       Type             X           Y           Z
 ---------------------------------------------------------------------
      1         78           0        0.274966    0.275882   -0.275924
      2         15           0       -1.885908    1.456778    0.053520
      3         15           0       -0.362490   -1.910890    0.106974
      4          6           0       -2.574564    2.175944   -1.498069
      5          6           0       -3.685243    3.044058   -1.464462
      6          6           0       -2.021850    1.825511   -2.738667
      7          6           0       -4.204967    3.573451   -2.648108
      8          1           0       -4.159237    3.308281   -0.515732
      9          6           0       -2.557070    2.340228   -3.924893
     10          1           0       -1.172818    1.143820   -2.778841
     11          6           0       -3.638459    3.222666   -3.882216
     12          1           0       -5.056810    4.259327   -2.606491
     13          1           0       -2.123484    2.049700   -4.882901
     14          1           0       -4.050714    3.633672   -4.807646
     15          6           0       -1.440504    2.877083    1.153299
     16          6           0       -0.878285    2.595726    2.412728
     17          6           0       -1.556735    4.218932    0.755733
     18          6           0       -0.489448    3.626465    3.272117
     19          1           0       -0.723571    1.563225    2.727661
     20          6           0       -1.159101    5.250193    1.613611
     21          1           0       -1.936730    4.473274   -0.233287
     22          6           0       -0.633680    4.960497    2.875637
     23          1           0       -0.062281    3.383133    4.248394
     24          1           0       -1.255322    6.288152    1.283751
     25          1           0       -0.324073    5.768651    3.542973
     26          6           0       -3.403601    0.716927    0.825825
     27          6           0       -4.342350    0.080810   -0.007991
     28          6           0       -3.650690    0.756079    2.209912
     29          6           0       -5.503056   -0.484563    0.526450
     30          1           0       -4.179270    0.033202   -1.085786
     31          6           0       -4.810072    0.182322    2.742017
     32          1           0       -2.954385    1.250244    2.886797
     33          6           0       -5.740674   -0.437198    1.903248
     34          1           0       -6.222868   -0.964704   -0.141295
     35          1           0       -4.984985    0.228910    3.820054
     36          1           0       -6.650502   -0.877585    2.320336
     37          6           0        0.834114   -3.284719   -0.237231
     38          6           0        0.761878   -4.090554   -1.384492
     39          6           0        1.834526   -3.544436    0.716248
     40          6           0        1.672876   -5.134786   -1.570741
     41          1           0       -0.007565   -3.920669   -2.136938
     42          6           0        2.745154   -4.583274    0.522429
     43          1           0        1.920244   -2.925354    1.610609
     44          6           0        2.666073   -5.384607   -0.620579
     45          1           0        1.600709   -5.756031   -2.467087
     46          1           0        3.522380   -4.763551    1.269553
     47          1           0        3.377664   -6.200621   -0.769988
     48          6           0       -1.762129   -2.277793   -1.039218
     49          6           0       -2.961817   -2.896374   -0.657283
     50          6           0       -1.574260   -1.934301   -2.392736
     51          6           0       -3.941282   -3.189576   -1.613490
     52          1           0       -3.155339   -3.141307    0.386263
     53          6           0       -2.552803   -2.229268   -3.343939
     54          1           0       -0.651956   -1.437435   -2.704607
     55          6           0       -3.738531   -2.863783   -2.956506
     56          1           0       -4.870630   -3.669821   -1.298502
     57          1           0       -2.387844   -1.960958   -4.390412
     58          1           0       -4.504579   -3.097260   -3.700383
     59          6           0       -0.856883   -2.328215    1.831126
     60          6           0       -1.377904   -3.598538    2.148121
     61          6           0       -0.609645   -1.416741    2.868468
     62          6           0       -1.695638   -3.921414    3.469146
     63          1           0       -1.520631   -4.350333    1.368838
     64          6           0       -0.910764   -1.748531    4.193684
     65          1           0       -0.146936   -0.455644    2.638410
     66          6           0       -1.467966   -2.994407    4.493918
     67          1           0       -2.112824   -4.904942    3.699939
     68          1           0       -0.702778   -1.031115    4.991326
     69          1           0       -1.710857   -3.252773    5.528014
     70         50           0        2.896153   -0.024027   -0.414854
     71         17           0        1.060874    2.460270   -1.077973
     72         17           0        3.714695   -1.710331   -2.000432
     73          6           0        4.476758    1.447878   -0.782585
     74          1           0        5.391452    0.833958   -0.781033
     75          1           0        4.313998    1.807176   -1.810815
     76         17           0        3.739008   -0.799464    1.786075
     77          6           0        4.560755    2.599852    0.215925
     78          1           0        3.626564    3.184290    0.182621
     79          1           0        4.641616    2.201456    1.241895
     80          6           0        5.752122    3.534083   -0.051536
     81          1           0        5.714827    3.878350   -1.103231
     82          1           0        6.693331    2.957634    0.044610
     83          6           0        5.793167    4.747854    0.878694
     84          1           0        6.674486    5.380045    0.678340
     85          1           0        4.895487    5.377650    0.752055
     86          1           0        5.834708    4.441200    1.937975
 ---------------------------------------------------------------------

 SCF Done:  E(RPBE-PBE) =  -26699.9728840     A.U. after    8 cycles

      1  Pt   Isotropic =  2965.1735   Anisotropy =  1817.2810

      2  P    Isotropic =   257.9537   Anisotropy =    61.7077

      3  P    Isotropic =   242.2746   Anisotropy =   112.1548

      4  C    Isotropic =    47.1733   Anisotropy =   240.9026

      5  C    Isotropic =    23.9845   Anisotropy =   167.7828

      6  C    Isotropic =    30.5502   Anisotropy =   180.5241

      7  C    Isotropic =    30.8369   Anisotropy =   175.1519

      8  H    Isotropic =    24.5221   Anisotropy =    11.2779

      9  C    Isotropic =    51.2402   Anisotropy =   192.2605

     10  H    Isotropic =    23.1015   Anisotropy =    14.1252

     11  C    Isotropic =    37.2069   Anisotropy =   219.7419

     12  H    Isotropic =    20.8783   Anisotropy =     9.8665

     13  H    Isotropic =    22.8860   Anisotropy =     9.0225

     14  H    Isotropic =    21.0550   Anisotropy =     7.7645

     15  C    Isotropic =    52.9080   Anisotropy =   244.7296

     16  C    Isotropic =    44.3312   Anisotropy =   199.1629

     17  C    Isotropic =    44.8505   Anisotropy =   195.3361

     18  C    Isotropic =    40.4313   Anisotropy =   189.3117

     19  H    Isotropic =    22.2752   Anisotropy =    10.5141

     20  C    Isotropic =    29.5747   Anisotropy =   160.5577

     21  H    Isotropic =    24.2448   Anisotropy =    12.9769

     22  C    Isotropic =    31.9245   Anisotropy =   203.4461

     23  H    Isotropic =    22.0171   Anisotropy =     8.6126

     24  H    Isotropic =    21.5794   Anisotropy =     9.5377

     25  H    Isotropic =    21.2322   Anisotropy =     7.5428

     26  C    Isotropic =    18.5186   Anisotropy =   197.1371

     27  C    Isotropic =   -13.4967   Anisotropy =    92.8861

     28  C    Isotropic =    52.5528   Anisotropy =   189.8142

     29  C    Isotropic =    67.3960   Anisotropy =   215.6098

     30  H    Isotropic =    26.1059   Anisotropy =    10.4886

     31  C    Isotropic =   135.0923   Anisotropy =   312.5715

     32  H    Isotropic =    24.3535   Anisotropy =    11.9785

     33  C    Isotropic =    69.0594   Anisotropy =    78.8672

     34  H    Isotropic =    27.4040   Anisotropy =     4.8294

     35  H    Isotropic =    31.7151   Anisotropy =    15.3818

     36  H    Isotropic =    32.9592   Anisotropy =    19.8335

     37  C    Isotropic =    51.0810   Anisotropy =   267.4954

     38  C    Isotropic =    21.7993   Anisotropy =   158.7691

     39  C    Isotropic =    92.8152   Anisotropy =   286.9756

     40  C    Isotropic =    26.3576   Anisotropy =   130.3429

     41  H    Isotropic =    22.9677   Anisotropy =    15.2720

     42  C    Isotropic =    85.8011   Anisotropy =   200.1768

     43  H    Isotropic =    22.5694   Anisotropy =    11.9977

     44  C    Isotropic =    15.5012   Anisotropy =    80.7641

     45  H    Isotropic =    24.1135   Anisotropy =     6.6650

     46  H    Isotropic =    28.4072   Anisotropy =     8.8590

     47  H    Isotropic =    27.8933   Anisotropy =     7.3479

     48  C    Isotropic =    11.0862   Anisotropy =   204.7221

     49  C    Isotropic =   -12.5682   Anisotropy =   106.1496

     50  C    Isotropic =    31.0951   Anisotropy =   173.1533

     51  C    Isotropic =    41.5561   Anisotropy =   206.6657

     52  H    Isotropic =    23.9128   Anisotropy =    14.9875

     53  C    Isotropic =    82.2655   Anisotropy =   242.4304

     54  H    Isotropic =    22.5927   Anisotropy =    14.2746

     55  C    Isotropic =    50.7341   Anisotropy =   195.5431

     56  H    Isotropic =    21.7695   Anisotropy =     9.5258

     57  H    Isotropic =    24.8988   Anisotropy =     5.8813

     58  H    Isotropic =    23.7597   Anisotropy =     3.9730

     59  C    Isotropic =    34.7203   Anisotropy =   180.8395

     60  C    Isotropic =    20.4635   Anisotropy =   157.2575

     61  C    Isotropic =    38.3606   Anisotropy =   169.1513

     62  C    Isotropic =    40.1557   Anisotropy =   184.4965

     63  H    Isotropic =    23.6796   Anisotropy =    10.3688

     64  C    Isotropic =    63.8655   Anisotropy =   204.8793

     65  H    Isotropic =    21.9574   Anisotropy =    13.2158

     66  C    Isotropic =    54.0590   Anisotropy =   217.1626

     67  H    Isotropic =    22.3672   Anisotropy =     7.2166

     68  H    Isotropic =    23.8105   Anisotropy =     6.2743

     69  H    Isotropic =    23.0820   Anisotropy =     3.9243

     70  Sn   Isotropic =  1957.6963   Anisotropy =   747.8898

     71  Cl   Isotropic =   992.4385   Anisotropy =   704.3033

     72  Cl   Isotropic =   859.6749   Anisotropy =   224.2464

     73  C    Isotropic =   142.9342   Anisotropy =    55.1676

     74  H    Isotropic =    32.1440   Anisotropy =     6.2999

     75  H    Isotropic =    29.8182   Anisotropy =     6.0974

     76  Cl   Isotropic =   845.2312   Anisotropy =   226.0018

     77  C    Isotropic =   147.5374   Anisotropy =    45.7798

     78  H    Isotropic =    29.0475   Anisotropy =    13.3196

     79  H    Isotropic =    29.6543   Anisotropy =     9.5925

     80  C    Isotropic =   148.2577   Anisotropy =    36.7099

     81  H    Isotropic =    29.9576   Anisotropy =     7.3144

     82  H    Isotropic =    29.8975   Anisotropy =     8.1959

     83  C    Isotropic =   163.8120   Anisotropy =    34.4824

     84  H    Isotropic =    29.8892   Anisotropy =    13.1689

     85  H    Isotropic =    30.9941   Anisotropy =     6.5743

     86  H    Isotropic =    30.8239   Anisotropy =     7.6596

 The electronic state is 1-A.
 Alpha  occ. eigenvalues -- ********************-427.53889-414.86923-414.86906
 Alpha  occ. eigenvalues -- -414.86636-149.63629-141.91457-141.91445-141.91319
 Alpha  occ. eigenvalues -- -100.54500-100.54450-100.52637 -99.91950 -92.07766
 Alpha  occ. eigenvalues --  -92.07736 -92.07330 -79.03675 -79.03565 -79.03348
 Alpha  occ. eigenvalues --  -79.03324 -79.03257 -76.32199 -76.30622 -28.80048
 Alpha  occ. eigenvalues --  -25.14760 -25.14723 -25.14319 -20.83415 -17.69658
 Alpha  occ. eigenvalues --  -17.69654 -17.69390 -17.69364 -17.69278 -17.40171
 Alpha  occ. eigenvalues --  -17.40124 -17.39265 -11.58619 -11.58221 -11.57783
 Alpha  occ. eigenvalues --  -11.57725 -11.57591  -9.92725  -9.92568  -9.92438
 Alpha  occ. eigenvalues --   -9.92408  -9.92191  -9.92033  -9.91515  -9.91417
 Alpha  occ. eigenvalues --   -9.91410  -9.91235  -9.91177  -9.91089  -9.91087
 Alpha  occ. eigenvalues --   -9.91047  -9.91042  -9.90996  -9.90990  -9.90940
 Alpha  occ. eigenvalues --   -9.90911  -9.90901  -9.90812  -9.90782  -9.90713
 Alpha  occ. eigenvalues --   -9.90668  -9.90652  -9.90592  -9.90557  -9.90521
 Alpha  occ. eigenvalues --   -9.90503  -9.90478  -9.90321  -9.90309  -9.90291
 Alpha  occ. eigenvalues --   -9.90267  -9.90222  -9.89990  -9.88843  -9.88037
 Alpha  occ. eigenvalues --   -9.87901  -9.86983  -9.12372  -9.12339  -9.10624
 Alpha  occ. eigenvalues --   -6.96110  -6.96090  -6.95599  -6.95564  -6.95563
 Alpha  occ. eigenvalues --   -6.95513  -6.94360  -6.93825  -6.93804  -6.35170
 Alpha  occ. eigenvalues --   -6.33724  -4.57710  -4.57686  -4.57437  -4.56278
 Alpha  occ. eigenvalues --   -4.56259  -4.55917  -4.48841  -3.22430  -3.22376
 Alpha  occ. eigenvalues --   -3.21644  -3.13478  -3.13471  -3.13009  -3.12734
 Alpha  occ. eigenvalues --   -3.12578  -3.12535  -3.12474  -2.86449  -1.81542
 Alpha  occ. eigenvalues --   -1.81226  -1.78819  -1.01605  -1.01401  -1.00915
 Alpha  occ. eigenvalues --   -1.00831  -1.00811  -0.80180  -0.79819  -0.79436
 Alpha  occ. eigenvalues --   -0.78995  -0.78926  -0.78848  -0.72102  -0.71686
 Alpha  occ. eigenvalues --   -0.71577  -0.70453  -0.69665  -0.69394  -0.69326
 Alpha  occ. eigenvalues --   -0.69070  -0.68960  -0.68896  -0.68743  -0.68480
 Alpha  occ. eigenvalues --   -0.68434  -0.68315  -0.68301  -0.68249  -0.64621
 Alpha  occ. eigenvalues --   -0.61209  -0.60677  -0.56534  -0.56228  -0.56135
 Alpha  occ. eigenvalues --   -0.55754  -0.55643  -0.55537  -0.55289  -0.54994
 Alpha  occ. eigenvalues --   -0.54894  -0.54838  -0.54785  -0.52188  -0.51833
 Alpha  occ. eigenvalues --   -0.51098  -0.48054  -0.47715  -0.47614  -0.47573
 Alpha  occ. eigenvalues --   -0.46102  -0.45795  -0.42560  -0.42281  -0.42162
 Alpha  occ. eigenvalues --   -0.41953  -0.41681  -0.41515  -0.41463  -0.41358
 Alpha  occ. eigenvalues --   -0.41086  -0.41057  -0.40837  -0.40799  -0.40468
 Alpha  occ. eigenvalues --   -0.40391  -0.39092  -0.38794  -0.38591  -0.38442
 Alpha  occ. eigenvalues --   -0.38409  -0.38278  -0.38093  -0.37735  -0.37552
 Alpha  occ. eigenvalues --   -0.37484  -0.37011  -0.36616  -0.36437  -0.35722
 Alpha  occ. eigenvalues --   -0.34875  -0.34630  -0.34557  -0.34261  -0.33994
 Alpha  occ. eigenvalues --   -0.33734  -0.33642  -0.32852  -0.32236  -0.31890
 Alpha  occ. eigenvalues --   -0.31734  -0.31676  -0.31529  -0.31363  -0.31129
 Alpha  occ. eigenvalues --   -0.31052  -0.30897  -0.30638  -0.30323  -0.30167
 Alpha  occ. eigenvalues --   -0.30107  -0.29804  -0.29565  -0.29131  -0.28393
 Alpha  occ. eigenvalues --   -0.27662  -0.27385  -0.26951  -0.26709  -0.26410
 Alpha  occ. eigenvalues --   -0.25858  -0.25822  -0.25545  -0.25189  -0.25123
 Alpha  occ. eigenvalues --   -0.24731  -0.24698  -0.24595  -0.24335  -0.24206
 Alpha  occ. eigenvalues --   -0.24004  -0.23822  -0.23676  -0.23376  -0.23214
 Alpha  occ. eigenvalues --   -0.22622  -0.22454  -0.21298  -0.19971
 Alpha virt. eigenvalues --   -0.10954  -0.07794  -0.07331  -0.06825  -0.06568
 Alpha virt. eigenvalues --   -0.06303  -0.06186  -0.06098  -0.05901  -0.05650
 Alpha virt. eigenvalues --   -0.05198  -0.04968  -0.04629  -0.04372  -0.02668

 Mulliken charges:
               1
     1  Pt   0.383419
     2  P    1.172634
     3  P    0.847021
     4  C   -0.935588
     5  C    0.306686
     6  C    0.415503
     7  C    0.038656
     8  H    0.097524
     9  C   -0.220229
    10  H    0.074658
    11  C   -0.596224
    12  H    0.144410
    13  H    0.137578
    14  H    0.155540
    15  C   -0.881846
    16  C    0.662347
    17  C    0.244113
    18  C   -0.048372
    19  H    0.054877
    20  C   -0.278359
    21  H    0.099738
    22  C   -0.573421
    23  H    0.140417
    24  H    0.144382
    25  H    0.154542
    26  C   -0.961706
    27  C    0.576508
    28  C    0.158451
    29  C    0.012397
    30  H    0.067328
    31  C   -0.170520
    32  H    0.076059
    33  C   -0.579010
    34  H    0.123861
    35  H    0.139984
    36  H    0.149710
    37  C   -0.939956
    38  C    0.260683
    39  C    0.430060
    40  C   -0.178429
    41  H    0.090509
    42  C   -0.016801
    43  H    0.105581
    44  C   -0.511935
    45  H    0.139758
    46  H    0.142847
    47  H    0.152334
    48  C   -0.866676
    49  C    0.383759
    50  C    0.447913
    51  C   -0.158935
    52  H    0.059012
    53  C    0.025491
    54  H    0.053948
    55  C   -0.494017
    56  H    0.121045
    57  H    0.134235
    58  H    0.147817
    59  C   -0.798663
    60  C    0.252321
    61  C    0.445660
    62  C    0.045568
    63  H    0.096093
    64  C   -0.192798
    65  H    0.055580
    66  C   -0.582292
    67  H    0.142669
    68  H    0.136446
    69  H    0.155523
    70  Sn   0.191576
    71  Cl  -0.399246
    72  Cl  -0.264461
    73  C   -0.135980
    74  H    0.093495
    75  H    0.096781
    76  Cl  -0.318607
    77  C   -0.099676
    78  H    0.073505
    79  H    0.076152
    80  C   -0.262871
    81  H    0.123084
    82  H    0.125170
    83  C   -0.339381
    84  H    0.149485
    85  H    0.135726
    86  H    0.137830
 Sum of Mulliken charges =   0.00000

 Dipole moment (field-independent basis, Debye):
    X=            -15.4528    Y=             -1.7947    Z=              1.6792  Tot=             15.6471
 Quadrupole moment (field-independent basis, Debye-Ang):
   XX=           -357.5738   YY=           -328.7535   ZZ=           -324.8066
   XY=             10.4196   XZ=              8.9294   YZ=              0.5973

 1\1\GINC-NEQC27\SP\RPBEPBE\Gen\C40H39Cl3P2Pt1Sn1\GUEST\12-Dec-2019\0\\
 #PBEPBE/gen scf=(maxcycle=500,conver=3) NMR=GIAO Scrf=(solvent=Dichlor
 omethane)\\estrutura 96\\0,1\Pt,0,0.274966,0.275882,-0.275924\P,0,-1.8
 85908,1.456778,0.05352\P,0,-0.36249,-1.91089,0.106974\C,0,-2.574564,2.
 175944,-1.498069\C,0,-3.685243,3.044058,-1.464462\C,0,-2.02185,1.82551
 1,-2.738667\C,0,-4.204967,3.573451,-2.648108\H,0,-4.159237,3.308281,-0
 .515732\C,0,-2.55707,2.340228,-3.924893\H,0,-1.172818,1.14382,-2.77884
 1\C,0,-3.638459,3.222666,-3.882216\H,0,-5.05681,4.259327,-2.606491\H,0

 Normal termination of Gaussian 09 at Thu Dec 12 20:45:43 2019.
