 Gaussian 09, Revision D.01,
 Gaussian 09:  EM64L-G09RevD.01 24-Apr-2013

 ----------------------------------------------------------------------
 #PBEPBE/gen scf=(maxcycle=500,conver=3) NMR=GIAO Scrf=(solvent=Dichlor
 omethane)
 ----------------------------------------------------------------------

 ------------
 estrutura 94
 ------------
 Symbolic Z-matrix:
 Charge =  0 Multiplicity = 1

                         Standard orientation:
 ---------------------------------------------------------------------
 Center     Atomic      Atomic             Coordinates (Angstroms)
 Number     Number       Type             X           Y           Z
 ---------------------------------------------------------------------
      1         78           0        0.169502   -0.396853   -0.222295
      2         15           0       -2.355300   -0.971182   -0.087032
      3         15           0        0.060766    1.873081    0.072530
      4          6           0       -2.709904   -1.654543    1.594433
      5          6           0       -4.011641   -2.052432    1.962088
      6          6           0       -1.680517   -1.754338    2.541417
      7          6           0       -4.266814   -2.556826    3.238611
      8          1           0       -4.834629   -1.964564    1.249608
      9          6           0       -1.939098   -2.252932    3.823726
     10          1           0       -0.676564   -1.422250    2.281977
     11          6           0       -3.230256   -2.659257    4.172870
     12          1           0       -5.278287   -2.869257    3.505148
     13          1           0       -1.127842   -2.316613    4.551029
     14          1           0       -3.428650   -3.052306    5.173363
     15          6           0       -2.763112   -2.334701   -1.271177
     16          6           0       -2.519627   -2.119667   -2.640568
     17          6           0       -3.256340   -3.585315   -0.867218
     18          6           0       -2.805446   -3.109317   -3.583522
     19          1           0       -2.087814   -1.176172   -2.981555
     20          6           0       -3.528160   -4.582279   -1.811362
     21          1           0       -3.423817   -3.799164    0.188653
     22          6           0       -3.312951   -4.346095   -3.171271
     23          1           0       -2.616214   -2.917186   -4.642682
     24          1           0       -3.908015   -5.550711   -1.475660
     25          1           0       -3.528132   -5.125270   -3.906869
     26          6           0       -3.775789    0.212026   -0.291055
     27          6           0       -4.089906    1.072615    0.777782
     28          6           0       -4.525575    0.312599   -1.475253
     29          6           0       -5.124090    2.004871    0.665104
     30          1           0       -3.533480    1.008843    1.714283
     31          6           0       -5.558657    1.249138   -1.586722
     32          1           0       -4.320485   -0.347606   -2.318673
     33          6           0       -5.861658    2.099273   -0.519498
     34          1           0       -5.354232    2.658566    1.510691
     35          1           0       -6.131942    1.307446   -2.515376
     36          1           0       -6.671237    2.827925   -0.607453
     37          6           0        1.559993    2.952672   -0.105197
     38          6           0        2.057414    3.747164    0.936121
     39          6           0        2.172875    3.022885   -1.368116
     40          6           0        3.154885    4.588570    0.721025
     41          1           0        1.599674    3.714592    1.924860
     42          6           0        3.266082    3.863689   -1.581704
     43          1           0        1.784619    2.428911   -2.199015
     44          6           0        3.763930    4.647562   -0.533451
     45          1           0        3.535024    5.197373    1.545383
     46          1           0        3.729103    3.909757   -2.570558
     47          1           0        4.621716    5.304511   -0.698597
     48          6           0       -0.607222    2.333289    1.728823
     49          6           0       -1.696979    3.193451    1.936851
     50          6           0        0.037253    1.767185    2.845985
     51          6           0       -2.126575    3.488655    3.236395
     52          1           0       -2.230873    3.629042    1.092499
     53          6           0       -0.388982    2.070652    4.141051
     54          1           0        0.885054    1.093189    2.699355
     55          6           0       -1.473955    2.932685    4.339726
     56          1           0       -2.979149    4.157152    3.381842
     57          1           0        0.126545    1.628822    4.997398
     58          1           0       -1.810977    3.166667    5.352851
     59          6           0       -0.974055    2.671399   -1.241191
     60          6           0       -1.204948    4.060865   -1.238052
     61          6           0       -1.398119    1.920648   -2.347060
     62          6           0       -1.880140    4.668564   -2.298314
     63          1           0       -0.834426    4.681736   -0.419816
     64          6           0       -2.058392    2.532578   -3.417686
     65          1           0       -1.183990    0.851465   -2.377524
     66          6           0       -2.308629    3.905903   -3.391790
     67          1           0       -2.057561    5.746582   -2.278379
     68          1           0       -2.372079    1.930725   -4.274324
     69          1           0       -2.825234    4.385835   -4.226603
     70         50           0        2.789234   -0.935503    0.016175
     71         17           0        0.502807   -2.720920   -0.915675
     72          6           0        3.917694   -1.040577   -1.956966
     73          6           0        3.418678   -2.517390    1.543743
     74         17           0        3.943650    0.910492    1.256556
     75          6           0        2.963144   -0.591169   -3.068270
     76          1           0        2.622033    0.445985   -2.928071
     77          1           0        3.476399   -0.640512   -4.048854
     78          1           0        2.071473   -1.234037   -3.125773
     79          6           0        5.142902   -0.124534   -1.894659
     80          1           0        5.675480   -0.148284   -2.866362
     81          1           0        4.871828    0.921683   -1.685703
     82          1           0        5.859780   -0.439728   -1.119504
     83          6           0        4.349597   -2.491844   -2.207932
     84          1           0        5.057106   -2.860198   -1.449102
     85          1           0        3.491783   -3.180507   -2.241157
     86          1           0        4.863619   -2.560202   -3.187346
     87          6           0        3.090596   -3.935610    1.063086
     88          1           0        3.438772   -4.667703    1.820414
     89          1           0        2.012434   -4.086999    0.917436
     90          1           0        3.595565   -4.184148    0.115359
     91          6           0        2.679016   -2.219478    2.852654
     92          1           0        1.587148   -2.317423    2.739301
     93          1           0        2.991448   -2.939772    3.634729
     94          1           0        2.900324   -1.207415    3.227550
     95          6           0        4.933256   -2.379559    1.751500
     96          1           0        5.213142   -1.374396    2.098263
     97          1           0        5.268966   -3.109932    2.514551
     98          1           0        5.503261   -2.592434    0.831515
 ---------------------------------------------------------------------

 SCF Done:  E(RPBE-PBE) =  -26397.8024258     A.U. after    8 cycles

      1  Pt   Isotropic =  3031.7897   Anisotropy =  2404.8821

      2  P    Isotropic =   281.4577   Anisotropy =    40.3648

      3  P    Isotropic =   249.1030   Anisotropy =   138.2597

      4  C    Isotropic =    26.8719   Anisotropy =   145.2361

      5  C    Isotropic =    19.1173   Anisotropy =   155.6872

      6  C    Isotropic =    17.9951   Anisotropy =   121.5980

      7  C    Isotropic =    26.9785   Anisotropy =   210.3024

      8  H    Isotropic =    23.2441   Anisotropy =    12.7641

      9  C    Isotropic =    48.5286   Anisotropy =   193.5096

     10  H    Isotropic =    22.9774   Anisotropy =    11.7392

     11  C    Isotropic =    55.0417   Anisotropy =   308.3092

     12  H    Isotropic =    16.1509   Anisotropy =    15.9468

     13  H    Isotropic =    22.7305   Anisotropy =     9.7214

     14  H    Isotropic =    17.0721   Anisotropy =    14.8183

     15  C    Isotropic =    48.6534   Anisotropy =   210.7580

     16  C    Isotropic =    49.1289   Anisotropy =   226.8676

     17  C    Isotropic =    46.7322   Anisotropy =   207.7747

     18  C    Isotropic =    21.3413   Anisotropy =   173.8249

     19  H    Isotropic =    23.7850   Anisotropy =     9.7428

     20  C    Isotropic =    11.9523   Anisotropy =   177.0385

     21  H    Isotropic =    23.8559   Anisotropy =    15.6649

     22  C    Isotropic =    51.4893   Anisotropy =   344.1844

     23  H    Isotropic =    19.2382   Anisotropy =    12.9759

     24  H    Isotropic =    16.5263   Anisotropy =    17.0540

     25  H    Isotropic =    15.2142   Anisotropy =    17.1673

     26  C    Isotropic =    21.5987   Anisotropy =   194.9332

     27  C    Isotropic =     4.5246   Anisotropy =   122.5927

     28  C    Isotropic =    67.8929   Anisotropy =   217.8503

     29  C    Isotropic =    53.5973   Anisotropy =   182.7905

     30  H    Isotropic =    27.1452   Anisotropy =    11.3398

     31  C    Isotropic =    95.0185   Anisotropy =   227.8811

     32  H    Isotropic =    25.9965   Anisotropy =    13.6199

     33  C    Isotropic =    49.8174   Anisotropy =    85.4145

     34  H    Isotropic =    26.2693   Anisotropy =     7.3925

     35  H    Isotropic =    29.5680   Anisotropy =     8.7907

     36  H    Isotropic =    29.5638   Anisotropy =     9.0273

     37  C    Isotropic =    89.5957   Anisotropy =   270.0736

     38  C    Isotropic =    74.7419   Anisotropy =   263.1891

     39  C    Isotropic =   106.7272   Anisotropy =   306.2892

     40  C    Isotropic =   -25.9021   Anisotropy =    78.8216

     41  H    Isotropic =    23.1298   Anisotropy =    11.1447

     42  C    Isotropic =    13.8356   Anisotropy =    96.7381

     43  H    Isotropic =    23.0790   Anisotropy =    12.5721

     44  C    Isotropic =   -20.6053   Anisotropy =   105.1127

     45  H    Isotropic =    16.7233   Anisotropy =    15.3644

     46  H    Isotropic =    20.5461   Anisotropy =    10.8470

     47  H    Isotropic =    16.0953   Anisotropy =    14.3311

     48  C    Isotropic =    76.4589   Anisotropy =   226.1322

     49  C    Isotropic =    10.8334   Anisotropy =   106.6921

     50  C    Isotropic =    97.1353   Anisotropy =   256.8028

     51  C    Isotropic =    10.6201   Anisotropy =    69.2859

     52  H    Isotropic =    22.7710   Anisotropy =    14.5911

     53  C    Isotropic =   119.9384   Anisotropy =   229.5610

     54  H    Isotropic =    22.1369   Anisotropy =    14.4930

     55  C    Isotropic =   -17.0492   Anisotropy =   109.9789

     56  H    Isotropic =    22.9682   Anisotropy =     7.7461

     57  H    Isotropic =    27.7038   Anisotropy =     7.5169

     58  H    Isotropic =    28.2805   Anisotropy =     7.7428

     59  C    Isotropic =    16.1279   Anisotropy =   129.7285

     60  C    Isotropic =    20.3533   Anisotropy =   156.4008

     61  C    Isotropic =    26.6952   Anisotropy =   154.3351

     62  C    Isotropic =    24.3194   Anisotropy =   162.7464

     63  H    Isotropic =    23.9179   Anisotropy =    14.3255

     64  C    Isotropic =    63.0963   Anisotropy =   217.5602

     65  H    Isotropic =    23.0970   Anisotropy =    13.4793

     66  C    Isotropic =    48.2923   Anisotropy =   231.3369

     67  H    Isotropic =    20.8161   Anisotropy =    10.1961

     68  H    Isotropic =    24.3344   Anisotropy =     7.2085

     69  H    Isotropic =    21.5448   Anisotropy =     7.7315

     70  Sn   Isotropic =  1943.8886   Anisotropy =   411.0609

     71  Cl   Isotropic =  1023.0440   Anisotropy =   537.3584

     72  C    Isotropic =   130.6254   Anisotropy =    58.0281

     73  C    Isotropic =   118.1106   Anisotropy =    60.9356

     74  Cl   Isotropic =   942.2022   Anisotropy =    98.2398

     75  C    Isotropic =   144.7265   Anisotropy =    46.3507

     76  H    Isotropic =    30.0439   Anisotropy =     7.9068

     77  H    Isotropic =    31.4262   Anisotropy =    10.1223

     78  H    Isotropic =    29.7268   Anisotropy =     7.1521

     79  C    Isotropic =   157.0192   Anisotropy =    30.0832

     80  H    Isotropic =    32.0376   Anisotropy =     9.9871

     81  H    Isotropic =    30.3791   Anisotropy =     7.2792

     82  H    Isotropic =    30.9052   Anisotropy =     7.7904

     83  C    Isotropic =   153.4122   Anisotropy =    41.2684

     84  H    Isotropic =    30.6185   Anisotropy =     8.3533

     85  H    Isotropic =    29.9034   Anisotropy =     7.0039

     86  H    Isotropic =    31.5428   Anisotropy =    11.2548

     87  C    Isotropic =   148.1233   Anisotropy =    46.9877

     88  H    Isotropic =    30.4660   Anisotropy =    13.1274

     89  H    Isotropic =    30.3483   Anisotropy =     7.8447

     90  H    Isotropic =    30.4558   Anisotropy =     8.4267

     91  C    Isotropic =   143.4448   Anisotropy =    57.4866

     92  H    Isotropic =    30.6791   Anisotropy =     5.6911

     93  H    Isotropic =    30.1084   Anisotropy =    12.6241

     94  H    Isotropic =    29.8837   Anisotropy =     6.5284

     95  C    Isotropic =   148.6152   Anisotropy =    50.1785

     96  H    Isotropic =    29.2943   Anisotropy =     7.6348

     97  H    Isotropic =    31.0495   Anisotropy =    12.3049

     98  H    Isotropic =    30.2718   Anisotropy =     9.1479

 The electronic state is 1-A.
 Alpha  occ. eigenvalues -- ********************-427.52077-414.85114-414.85081
 Alpha  occ. eigenvalues -- -414.84855-149.60921-141.88754-141.88666-141.88635
 Alpha  occ. eigenvalues -- -100.53471-100.52756 -99.90126 -92.05924 -92.05885
 Alpha  occ. eigenvalues --  -92.05553 -79.01812 -79.01720 -79.01539 -79.01515
 Alpha  occ. eigenvalues --  -79.01461 -76.31356 -76.29285 -28.77412 -25.12182
 Alpha  occ. eigenvalues --  -25.11903 -25.11805 -20.81606 -17.66970 -17.66931
 Alpha  occ. eigenvalues --  -17.66867 -17.66676 -17.66673 -17.38332 -17.38259
 Alpha  occ. eigenvalues --  -17.37549 -11.56715 -11.56382 -11.56005 -11.55957
 Alpha  occ. eigenvalues --  -11.55843  -9.92368  -9.92328  -9.92309  -9.92235
 Alpha  occ. eigenvalues --   -9.92157  -9.91638  -9.91635  -9.91467  -9.91026
 Alpha  occ. eigenvalues --   -9.90885  -9.90806  -9.90774  -9.90745  -9.90727
 Alpha  occ. eigenvalues --   -9.90678  -9.90670  -9.90651  -9.90634  -9.90625
 Alpha  occ. eigenvalues --   -9.90616  -9.90610  -9.90574  -9.90477  -9.90394
 Alpha  occ. eigenvalues --   -9.90387  -9.90339  -9.90263  -9.90260  -9.90219
 Alpha  occ. eigenvalues --   -9.90067  -9.89986  -9.89964  -9.89940  -9.89918
 Alpha  occ. eigenvalues --   -9.89773  -9.89681  -9.89501  -9.89444  -9.87390
 Alpha  occ. eigenvalues --   -9.87175  -9.87112  -9.86949  -9.86843  -9.86535
 Alpha  occ. eigenvalues --   -9.11243  -9.10713  -6.94976  -6.94488  -6.94448
 Alpha  occ. eigenvalues --   -6.94414  -6.93938  -6.93914  -6.34393  -6.32524
 Alpha  occ. eigenvalues --   -4.56940  -4.56909  -4.56636  -4.55084  -4.55060
 Alpha  occ. eigenvalues --   -4.54672  -4.46295  -3.20015  -3.19527  -3.19286
 Alpha  occ. eigenvalues --   -3.11595  -3.11580  -3.11187  -3.10959  -3.10830
 Alpha  occ. eigenvalues --   -3.10776  -3.10730  -2.84770  -1.79991  -1.79306
 Alpha  occ. eigenvalues --   -1.77379  -0.98996  -0.98792  -0.98569  -0.98324
 Alpha  occ. eigenvalues --   -0.98254  -0.79899  -0.79485  -0.79168  -0.78690
 Alpha  occ. eigenvalues --   -0.78571  -0.78533  -0.72384  -0.71779  -0.71725
 Alpha  occ. eigenvalues --   -0.71251  -0.69163  -0.68962  -0.68750  -0.68714
 Alpha  occ. eigenvalues --   -0.68703  -0.68658  -0.68445  -0.68306  -0.68111
 Alpha  occ. eigenvalues --   -0.68051  -0.67990  -0.67976  -0.61224  -0.61083
 Alpha  occ. eigenvalues --   -0.60844  -0.60783  -0.60533  -0.60153  -0.56218
 Alpha  occ. eigenvalues --   -0.55885  -0.55843  -0.55510  -0.55313  -0.55009
 Alpha  occ. eigenvalues --   -0.54683  -0.54577  -0.54498  -0.54458  -0.51892
 Alpha  occ. eigenvalues --   -0.51443  -0.48295  -0.47769  -0.47472  -0.47332
 Alpha  occ. eigenvalues --   -0.47262  -0.47152  -0.45762  -0.45407  -0.42421
 Alpha  occ. eigenvalues --   -0.42226  -0.41929  -0.41819  -0.41634  -0.41452
 Alpha  occ. eigenvalues --   -0.41146  -0.41009  -0.40802  -0.40741  -0.40542
 Alpha  occ. eigenvalues --   -0.40256  -0.40108  -0.39608  -0.38745  -0.38550
 Alpha  occ. eigenvalues --   -0.38519  -0.38374  -0.38267  -0.38142  -0.38006
 Alpha  occ. eigenvalues --   -0.37946  -0.37876  -0.37800  -0.37601  -0.37425
 Alpha  occ. eigenvalues --   -0.37121  -0.36691  -0.36052  -0.35295  -0.34737
 Alpha  occ. eigenvalues --   -0.34470  -0.34173  -0.34039  -0.33770  -0.33716
 Alpha  occ. eigenvalues --   -0.33463  -0.33339  -0.33253  -0.33045  -0.32834
 Alpha  occ. eigenvalues --   -0.32454  -0.31500  -0.31472  -0.31309  -0.31227
 Alpha  occ. eigenvalues --   -0.31164  -0.31100  -0.30989  -0.30707  -0.30657
 Alpha  occ. eigenvalues --   -0.30049  -0.29946  -0.29691  -0.29437  -0.29288
 Alpha  occ. eigenvalues --   -0.28865  -0.28769  -0.28408  -0.28043  -0.27450
 Alpha  occ. eigenvalues --   -0.26841  -0.25686  -0.25426  -0.25156  -0.24830
 Alpha  occ. eigenvalues --   -0.24791  -0.24700  -0.24525  -0.24403  -0.24243
 Alpha  occ. eigenvalues --   -0.24221  -0.24103  -0.23768  -0.23422  -0.23311
 Alpha  occ. eigenvalues --   -0.23214  -0.22687  -0.22291  -0.21976  -0.20792
 Alpha  occ. eigenvalues --   -0.19732  -0.18445
 Alpha virt. eigenvalues --   -0.09686  -0.07534  -0.07061  -0.06679  -0.06218
 Alpha virt. eigenvalues --   -0.06032  -0.05929  -0.05639  -0.05386  -0.05324
 Alpha virt. eigenvalues --   -0.04848  -0.04429  -0.04322  -0.03044  -0.02058

 Mulliken charges:
               1
     1  Pt   0.405544
     2  P    1.126027
     3  P    0.831326
     4  C   -0.868574
     5  C    0.396642
     6  C    0.157298
     7  C    0.052906
     8  H    0.092743
     9  C   -0.278443
    10  H    0.069375
    11  C   -0.551979
    12  H    0.142037
    13  H    0.137204
    14  H    0.151580
    15  C   -0.802388
    16  C    0.581880
    17  C    0.195325
    18  C   -0.003657
    19  H    0.062556
    20  C   -0.222067
    21  H    0.099851
    22  C   -0.581734
    23  H    0.140962
    24  H    0.142609
    25  H    0.151440
    26  C   -1.038745
    27  C    0.575994
    28  C    0.263855
    29  C   -0.037486
    30  H    0.068815
    31  C   -0.209513
    32  H    0.078426
    33  C   -0.542305
    34  H    0.128299
    35  H    0.136468
    36  H    0.148928
    37  C   -1.182904
    38  C    0.313864
    39  C    0.485926
    40  C   -0.130446
    41  H    0.079403
    42  C    0.030893
    43  H    0.079359
    44  C   -0.513038
    45  H    0.137746
    46  H    0.134783
    47  H    0.143817
    48  C   -0.771245
    49  C    0.443072
    50  C    0.442827
    51  C   -0.164852
    52  H    0.061393
    53  C   -0.090245
    54  H    0.052350
    55  C   -0.554445
    56  H    0.134560
    57  H    0.139378
    58  H    0.152976
    59  C   -0.902837
    60  C    0.316064
    61  C    0.363131
    62  C    0.076455
    63  H    0.088456
    64  C   -0.199262
    65  H    0.053380
    66  C   -0.571654
    67  H    0.142755
    68  H    0.122116
    69  H    0.149915
    70  Sn  -0.010526
    71  Cl  -0.367232
    72  C   -0.722895
    73  C   -0.594351
    74  Cl  -0.276797
    75  C    0.172516
    76  H    0.033473
    77  H    0.101907
    78  H    0.041045
    79  C    0.017577
    80  H    0.114145
    81  H    0.058152
    82  H    0.084132
    83  C   -0.009118
    84  H    0.081287
    85  H    0.082635
    86  H    0.123509
    87  C    0.024533
    88  H    0.118040
    89  H    0.065843
    90  H    0.078596
    91  C    0.048298
    92  H    0.033802
    93  H    0.115097
    94  H    0.072827
    95  C   -0.041687
    96  H    0.090055
    97  H    0.121173
    98  H    0.079077
 Sum of Mulliken charges =   0.00000

 Dipole moment (field-independent basis, Debye):
    X=            -10.1044    Y=              4.9417    Z=              0.0200  Tot=             11.2480
 Quadrupole moment (field-independent basis, Debye-Ang):
   XX=           -363.9757   YY=           -348.8519   ZZ=           -334.6910
   XY=             -1.2326   XZ=             -8.3009   YZ=             -4.6908

 1\1\GINC-NEQC27\SP\RPBEPBE\Gen\C44H48Cl2P2Pt1Sn1\GUEST\12-Dec-2019\0\\
 #PBEPBE/gen scf=(maxcycle=500,conver=3) NMR=GIAO Scrf=(solvent=Dichlor
 omethane)\\estrutura 94\\0,1\Pt,0,-0.169502,-0.396853,0.222295\P,0,2.3
 553,-0.971182,0.087032\P,0,-0.060766,1.873081,-0.07253\C,0,2.709904,-1
 .654543,-1.594433\C,0,4.011641,-2.052432,-1.962088\C,0,1.680517,-1.754
 338,-2.541417\C,0,4.266814,-2.556826,-3.238611\H,0,4.834629,-1.964564,
 -1.249608\C,0,1.939098,-2.252932,-3.823726\H,0,0.676564,-1.42225,-2.28
 1977\C,0,3.230256,-2.659257,-4.17287\H,0,5.278287,-2.869257,-3.505148\

 Normal termination of Gaussian 09 at Thu Dec 12 16:44:19 2019.
