 Gaussian 09, Revision D.01,
 Gaussian 09:  EM64L-G09RevD.01 24-Apr-2013

 ----------------------------------------------------------------------
 #PBEPBE/gen scf=(maxcycle=500,conver=4) NMR=GIAO Scrf=(solvent=Dichlor
 omethane)
 ----------------------------------------------------------------------

 ------------
 estrutura 27
 ------------
 Symbolic Z-matrix:
 Charge = -1 Multiplicity = 1

                         Standard orientation:
 ---------------------------------------------------------------------
 Center     Atomic      Atomic             Coordinates (Angstroms)
 Number     Number       Type             X           Y           Z
 ---------------------------------------------------------------------
      1         78           0        0.127036   -1.232463   -0.014862
      2         17           0       -1.580196   -2.959924    0.090693
      3         17           0        1.903277   -2.897242   -0.065548
      4         50           0       -1.878050    0.412102   -0.042251
      5         17           0       -2.612660    1.236870    2.126220
      6         17           0       -4.032104   -0.256029   -0.909826
      7         17           0       -1.744731    2.508915   -1.277786
      8         15           0        1.654202    0.389691   -0.084199
      9          8           0        1.115383    1.811179    0.487479
     10          8           0        2.131629    0.617171   -1.597812
     11          8           0        2.976860    0.099689    0.797675
     12          6           0        1.712592    2.610347    1.534925
     13          1           0        2.209852    1.945253    2.256322
     14          1           0        2.482163    3.256290    1.081813
     15          6           0        0.627843    3.431066    2.199477
     16          1           0        1.075733    4.081919    2.966860
     17          1           0        0.105623    4.064091    1.466158
     18          1           0       -0.116640    2.778391    2.677301
     19          6           0        2.602638    1.672430   -2.466716
     20          1           0        3.636012    1.408185   -2.741840
     21          1           0        1.984004    1.589058   -3.372796
     22          6           0        2.537759    3.082976   -1.915513
     23          1           0        1.513482    3.354374   -1.627205
     24          1           0        3.205925    3.224235   -1.052453
     25          1           0        2.870453    3.770671   -2.708782
     26          6           0        4.351616    0.279780    0.394978
     27          1           0        4.422981    0.188170   -0.699402
     28          1           0        4.662193    1.300764    0.677336
     29          6           0        5.202340   -0.769722    1.081563
     30          1           0        4.861083   -1.777808    0.800872
     31          1           0        6.255297   -0.648411    0.779281
     32          1           0        5.141836   -0.673173    2.176479
 ---------------------------------------------------------------------

 SCF Done:  E(RPBE-PBE) =  -26195.4898533     A.U. after    9 cycles

      1  Pt   Isotropic =  2586.5722   Anisotropy =  2967.3221

      2  Cl   Isotropic =  1014.4984   Anisotropy =   419.3544

      3  Cl   Isotropic =   883.3354   Anisotropy =   231.0794

      4  Sn   Isotropic =  2170.3886   Anisotropy =   832.6830

      5  Cl   Isotropic =   763.4202   Anisotropy =   333.7368

      6  Cl   Isotropic =   773.9684   Anisotropy =   301.9998

      7  Cl   Isotropic =   745.4871   Anisotropy =   344.7158

      8  P    Isotropic =   165.7072   Anisotropy =   228.1358

      9  O    Isotropic =   130.2552   Anisotropy =   154.1743

     10  O    Isotropic =   176.7531   Anisotropy =    48.6204

     11  O    Isotropic =   169.6744   Anisotropy =   101.9439

     12  C    Isotropic =   114.4054   Anisotropy =    77.5024

     13  H    Isotropic =    26.7209   Anisotropy =     6.5278

     14  H    Isotropic =    27.6105   Anisotropy =     7.0691

     15  C    Isotropic =   164.6282   Anisotropy =    24.0022

     16  H    Isotropic =    30.4084   Anisotropy =    11.8005

     17  H    Isotropic =    30.0399   Anisotropy =     4.9506

     18  H    Isotropic =    29.5282   Anisotropy =     7.5424

     19  C    Isotropic =   104.9144   Anisotropy =    93.6499

     20  H    Isotropic =    26.8232   Anisotropy =     9.4963

     21  H    Isotropic =    26.5358   Anisotropy =     8.9800

     22  C    Isotropic =   163.4237   Anisotropy =    22.2778

     23  H    Isotropic =    29.3019   Anisotropy =     5.9484

     24  H    Isotropic =    29.8747   Anisotropy =     4.1730

     25  H    Isotropic =    30.2071   Anisotropy =    11.7291

     26  C    Isotropic =   112.2739   Anisotropy =    78.9869

     27  H    Isotropic =    26.9437   Anisotropy =     7.6558

     28  H    Isotropic =    27.1013   Anisotropy =     8.6205

     29  C    Isotropic =   166.4046   Anisotropy =    26.8466

     30  H    Isotropic =    29.6945   Anisotropy =     5.4093

     31  H    Isotropic =    30.1632   Anisotropy =    11.9051

     32  H    Isotropic =    30.1050   Anisotropy =     8.0798

 The electronic state is 1-A.
 Alpha  occ. eigenvalues -- ********************-427.53226-414.86289-414.86194
 Alpha  occ. eigenvalues -- -414.85920-149.65071-141.92896-141.92890-141.92816
 Alpha  occ. eigenvalues -- -100.54867-100.54792-100.54596-100.51268-100.51248
 Alpha  occ. eigenvalues --  -99.91287 -92.07207 -92.07017 -92.06599 -79.03072
 Alpha  occ. eigenvalues --  -79.02929 -79.02706 -79.02595 -79.02544 -76.39690
 Alpha  occ. eigenvalues --  -28.81377 -25.16027 -25.16007 -25.15767 -20.82785
 Alpha  occ. eigenvalues --  -18.78462 -18.78450 -18.77579 -17.70925 -17.70924
 Alpha  occ. eigenvalues --  -17.70763 -17.70751 -17.70705 -17.39769 -17.39389
 Alpha  occ. eigenvalues --  -17.38503 -11.58146 -11.57643 -11.57191 -11.56954
 Alpha  occ. eigenvalues --  -11.56848  -9.95209  -9.94639  -9.94435  -9.88295
 Alpha  occ. eigenvalues --   -9.87784  -9.87669  -9.12693  -9.12668  -9.12465
 Alpha  occ. eigenvalues --   -9.09083  -9.08966  -6.96508  -6.96458  -6.96256
 Alpha  occ. eigenvalues --   -6.95886  -6.95855  -6.95853  -6.95843  -6.95666
 Alpha  occ. eigenvalues --   -6.95628  -6.92830  -6.92741  -6.92323  -6.92266
 Alpha  occ. eigenvalues --   -6.92214  -6.92145  -6.41503  -4.64241  -4.64197
 Alpha  occ. eigenvalues --   -4.63658  -4.50019  -3.23467  -3.23437  -3.23047
 Alpha  occ. eigenvalues --   -3.12998  -3.12944  -3.12442  -3.12062  -3.11933
 Alpha  occ. eigenvalues --   -3.11740  -3.11707  -2.85761  -1.81255  -1.80401
 Alpha  occ. eigenvalues --   -1.77824  -1.02499  -1.02480  -1.02132  -1.02068
 Alpha  occ. eigenvalues --   -1.02028  -0.99290  -0.94500  -0.93996  -0.71482
 Alpha  occ. eigenvalues --   -0.71377  -0.69851  -0.69683  -0.68964  -0.68589
 Alpha  occ. eigenvalues --   -0.66674  -0.66112  -0.61345  -0.57533  -0.56536
 Alpha  occ. eigenvalues --   -0.51355  -0.47890  -0.46860  -0.43610  -0.42599
 Alpha  occ. eigenvalues --   -0.42417  -0.41415  -0.40755  -0.39310  -0.37401
 Alpha  occ. eigenvalues --   -0.36437  -0.34872  -0.34573  -0.34134  -0.33244
 Alpha  occ. eigenvalues --   -0.32722  -0.32564  -0.32097  -0.31998  -0.31656
 Alpha  occ. eigenvalues --   -0.30896  -0.29882  -0.29206  -0.28593  -0.28175
 Alpha  occ. eigenvalues --   -0.28012  -0.27437  -0.26839  -0.26682  -0.26647
 Alpha  occ. eigenvalues --   -0.26127  -0.25524  -0.25448  -0.25204  -0.24865
 Alpha  occ. eigenvalues --   -0.23955  -0.23111  -0.21764  -0.21048  -0.20860
 Alpha  occ. eigenvalues --   -0.20753  -0.20198
 Alpha virt. eigenvalues --   -0.10406  -0.04390  -0.02200  -0.01893  -0.01116
 Alpha virt. eigenvalues --   -0.00382   0.00308   0.00671   0.00722   0.01687
 Alpha virt. eigenvalues --    0.02311   0.02383   0.02664   0.03356   0.04429

 Mulliken charges:
               1
     1  Pt   0.214622
     2  Cl  -0.550345
     3  Cl  -0.582467
     4  Sn   0.315015
     5  Cl  -0.261977
     6  Cl  -0.197088
     7  Cl  -0.262950
     8  P   -0.257582
     9  O   -0.136330
    10  O   -0.092380
    11  O   -0.077587
    12  C   -0.041572
    13  H    0.111368
    14  H    0.099627
    15  C   -0.227425
    16  H    0.148653
    17  H    0.119154
    18  H    0.107822
    19  C   -0.109874
    20  H    0.127893
    21  H    0.138168
    22  C   -0.223738
    23  H    0.104325
    24  H    0.102918
    25  H    0.149604
    26  C   -0.068775
    27  H    0.091469
    28  H    0.111951
    29  C   -0.261119
    30  H    0.124338
    31  H    0.148955
    32  H    0.135327
 Sum of Mulliken charges =  -1.00000

 Dipole moment (field-independent basis, Debye):
    X=             14.3057    Y=             12.7634    Z=             -0.4351  Tot=             19.1767
 Quadrupole moment (field-independent basis, Debye-Ang):
   XX=           -212.4584   YY=           -233.5006   ZZ=           -192.9167
   XY=             22.0261   XZ=             -2.4291   YZ=              0.0516

 Normal termination of Gaussian 09 at Tue Feb  4 08:34:45 2020.
