 Gaussian 09, Revision D.01,
 Gaussian 09:  EM64L-G09RevD.01 24-Apr-2013

 ----------------------------------------------------------------------
 #PBEPBE/gen scf=(maxcycle=500,conver=4) NMR=GIAO Scrf=(solvent=Dichlor
 omethane)
 ----------------------------------------------------------------------

 ------------
 estrutura 79
 ------------
 Symbolic Z-matrix:
 Charge =  0 Multiplicity = 1

                         Standard orientation:
 ---------------------------------------------------------------------
 Center     Atomic      Atomic             Coordinates (Angstroms)
 Number     Number       Type             X           Y           Z
 ---------------------------------------------------------------------
      1         78           0       -0.028767   -0.051254    0.246025
      2         15           0       -0.152943    2.354399    0.318406
      3         15           0        0.164126   -2.439193    0.137717
      4          6           0       -0.145303    3.006458   -1.416586
      5          1           0       -0.909873    2.417303   -1.946680
      6          1           0        0.827213    2.699341   -1.836402
      7          6           0       -0.391194    4.502326   -1.637190
      8          1           0        0.318243    5.136490   -1.083475
      9          1           0       -0.278476    4.740066   -2.707653
     10          1           0       -1.411561    4.793916   -1.345625
     11          6           0       -1.744249    2.926975    1.107691
     12          1           0       -1.987978    2.181711    1.880049
     13          6           0        1.182151    3.272842    1.231113
     14          1           0        0.742078    4.227740    1.552317
     15          1           0        1.376139    2.695366    2.148098
     16          6           0        2.488143    3.547037    0.479352
     17          1           0        3.209825    4.018786    1.164072
     18          1           0        2.954450    2.636128    0.083297
     19          1           0        2.335860    4.242890   -0.358577
     20          6           0       -1.062716   -3.337727    1.195642
     21          1           0       -0.891829   -4.418532    1.060923
     22          1           0       -2.056894   -3.130824    0.766676
     23          6           0       -1.013374   -2.950453    2.676186
     24          1           0       -0.049219   -3.212672    3.140338
     25          1           0       -1.172051   -1.869303    2.811812
     26          1           0       -1.805243   -3.476574    3.231930
     27          6           0        1.815489   -3.127960    0.629869
     28          1           0        2.540295   -2.706990   -0.083736
     29          1           0        2.066409   -2.675859    1.602170
     30          6           0        1.938923   -4.652797    0.689975
     31          1           0        2.976792   -4.927520    0.941737
     32          1           0        1.288372   -5.092425    1.462562
     33          1           0        1.697530   -5.134879   -0.267691
     34          6           0       -0.140492   -3.099133   -1.566997
     35          1           0        0.062849   -4.182449   -1.545122
     36          1           0       -1.221697   -2.984545   -1.749530
     37          6           0        0.667814   -2.406917   -2.668883
     38          1           0        0.477198   -2.894565   -3.638386
     39          1           0        0.383363   -1.346135   -2.762139
     40          1           0        1.754175   -2.451206   -2.486847
     41         50           0       -2.693864   -0.208452   -0.347446
     42         17           0       -4.216157    0.106513    1.549098
     43         17           0       -3.666468    1.422522   -1.909935
     44         17           0       -3.800610   -2.193473   -1.278877
     45          6           0       -1.824100    4.335577    1.703693
     46          1           0       -2.856576    4.525680    2.038221
     47          1           0       -1.172347    4.451124    2.582940
     48          1           0       -1.561970    5.120616    0.979242
     49          1           0       -2.504178    2.806148    0.318313
     50          6           0        1.963300    0.051478    0.724420
     51          6           0        2.939221    0.048009   -0.284887
     52          6           0        2.398617    0.088286    2.060856
     53          6           0        4.304612    0.069403    0.032430
     54          1           0        2.641613    0.019869   -1.335190
     55          6           0        3.762789    0.111320    2.377990
     56          1           0        1.668669    0.089333    2.875248
     57          6           0        4.725746    0.100362    1.367127
     58          1           0        4.075777    0.133555    3.425083
     59          1           0        5.789526    0.112283    1.610292
     60          6           0        5.321965    0.139869   -1.073905
     61          9           0        4.897209   -0.463231   -2.202253
     62          9           0        6.490779   -0.435387   -0.731587
     63          9           0        5.606870    1.420189   -1.408381
 ---------------------------------------------------------------------

 SCF Done:  E(RPBE-PBE) =  -26196.9382858     A.U. after   10 cycles

      1  Pt   Isotropic =  2955.3424   Anisotropy =  1107.9009

      2  P    Isotropic =   290.1001   Anisotropy =    34.0501

      3  P    Isotropic =   273.9233   Anisotropy =    52.0101

      4  C    Isotropic =   157.5636   Anisotropy =    32.8189

      5  H    Isotropic =    28.5811   Anisotropy =     7.8249

      6  H    Isotropic =    29.2295   Anisotropy =     5.5000

      7  C    Isotropic =   171.5654   Anisotropy =    21.6537

      8  H    Isotropic =    30.3727   Anisotropy =     8.5598

      9  H    Isotropic =    30.1012   Anisotropy =    13.0666

     10  H    Isotropic =    30.0592   Anisotropy =     7.9934

     11  C    Isotropic =   149.2758   Anisotropy =    31.1013

     12  H    Isotropic =    28.6995   Anisotropy =     7.7842

     13  C    Isotropic =   165.5378   Anisotropy =    22.8993

     14  H    Isotropic =    29.1963   Anisotropy =     9.4702

     15  H    Isotropic =    29.9986   Anisotropy =     6.0500

     16  C    Isotropic =   175.0316   Anisotropy =    21.4486

     17  H    Isotropic =    30.9413   Anisotropy =    11.5726

     18  H    Isotropic =    31.7488   Anisotropy =    13.0805

     19  H    Isotropic =    30.9592   Anisotropy =     9.0422

     20  C    Isotropic =   156.1579   Anisotropy =    20.6607

     21  H    Isotropic =    29.3051   Anisotropy =     9.4341

     22  H    Isotropic =    29.1303   Anisotropy =     9.4782

     23  C    Isotropic =   171.8669   Anisotropy =    19.2024

     24  H    Isotropic =    30.5616   Anisotropy =     9.4722

     25  H    Isotropic =    30.3189   Anisotropy =     5.4767

     26  H    Isotropic =    30.0339   Anisotropy =    13.2402

     27  C    Isotropic =   164.3572   Anisotropy =    28.0362

     28  H    Isotropic =    30.3917   Anisotropy =     9.7044

     29  H    Isotropic =    30.4406   Anisotropy =     8.6377

     30  C    Isotropic =   176.9954   Anisotropy =    18.6934

     31  H    Isotropic =    30.5431   Anisotropy =    12.5886

     32  H    Isotropic =    30.7197   Anisotropy =    10.0332

     33  H    Isotropic =    30.7165   Anisotropy =     9.8880

     34  C    Isotropic =   158.5645   Anisotropy =    21.3344

     35  H    Isotropic =    29.4587   Anisotropy =     9.6966

     36  H    Isotropic =    28.7564   Anisotropy =    10.6563

     37  C    Isotropic =   171.6772   Anisotropy =    18.0153

     38  H    Isotropic =    30.0898   Anisotropy =    13.3686

     39  H    Isotropic =    30.0588   Anisotropy =     5.3188

     40  H    Isotropic =    30.3891   Anisotropy =     8.7851

     41  Sn   Isotropic =  2142.4665   Anisotropy =   828.7542

     42  Cl   Isotropic =   755.1866   Anisotropy =   320.4036

     43  Cl   Isotropic =   750.5929   Anisotropy =   306.4167

     44  Cl   Isotropic =   751.0148   Anisotropy =   294.8882

     45  C    Isotropic =   170.4200   Anisotropy =    21.6731

     46  H    Isotropic =    29.9930   Anisotropy =    12.2235

     47  H    Isotropic =    30.1958   Anisotropy =     9.3658

     48  H    Isotropic =    30.3162   Anisotropy =     8.4488

     49  H    Isotropic =    28.4617   Anisotropy =     9.3046

     50  C    Isotropic =    18.2261   Anisotropy =   229.1846

     51  C    Isotropic =    69.5905   Anisotropy =   176.2173

     52  C    Isotropic =    31.0806   Anisotropy =   152.9304

     53  C    Isotropic =    65.2233   Anisotropy =   138.7862

     54  H    Isotropic =    22.5249   Anisotropy =    18.3771

     55  C    Isotropic =    37.4667   Anisotropy =   158.6854

     56  H    Isotropic =    23.4165   Anisotropy =    13.3604

     57  C    Isotropic =    58.2745   Anisotropy =   150.2009

     58  H    Isotropic =    23.4792   Anisotropy =     5.7139

     59  H    Isotropic =    24.7324   Anisotropy =     3.6620

     60  C    Isotropic =    39.2916   Anisotropy =    21.1761

     61  F    Isotropic =   233.9375   Anisotropy =   125.9911

     62  F    Isotropic =   227.4439   Anisotropy =   133.2530

     63  F    Isotropic =   206.2018   Anisotropy =   150.0980

 The electronic state is 1-A.
 Alpha  occ. eigenvalues -- ********************-427.53814-414.86859-414.86823
 Alpha  occ. eigenvalues -- -414.86543-149.65327-141.93141-141.93138-141.93066
 Alpha  occ. eigenvalues -- -100.55623-100.55502-100.55385 -99.91856 -92.07713
 Alpha  occ. eigenvalues --  -92.07598 -92.07236 -79.03596 -79.03476 -79.03273
 Alpha  occ. eigenvalues --  -79.03216 -79.03169 -76.29997 -76.29861 -28.81678
 Alpha  occ. eigenvalues --  -25.16313 -25.16306 -25.16078 -24.29348 -24.29284
 Alpha  occ. eigenvalues --  -24.28959 -20.83327 -17.71211 -17.71211 -17.71057
 Alpha  occ. eigenvalues --  -17.71054 -17.71008 -17.40168 -17.39952 -17.39179
 Alpha  occ. eigenvalues --  -11.58555 -11.58131 -11.57710 -11.57604 -11.57510
 Alpha  occ. eigenvalues --  -10.13466  -9.92389  -9.91104  -9.90871  -9.90865
 Alpha  occ. eigenvalues --   -9.90848  -9.90823  -9.90794  -9.90725  -9.90690
 Alpha  occ. eigenvalues --   -9.90643  -9.90436  -9.90095  -9.89103  -9.89077
 Alpha  occ. eigenvalues --   -9.89049  -9.89043  -9.89032  -9.88733  -9.13480
 Alpha  occ. eigenvalues --   -9.13360  -9.13239  -6.97240  -6.97114  -6.96998
 Alpha  occ. eigenvalues --   -6.96685  -6.96675  -6.96571  -6.96554  -6.96447
 Alpha  occ. eigenvalues --   -6.96431  -6.32995  -6.32895  -4.55529  -4.55522
 Alpha  occ. eigenvalues --   -4.55424  -4.55409  -4.55252  -4.55163  -4.50338
 Alpha  occ. eigenvalues --   -3.23783  -3.23757  -3.23353  -3.13419  -3.13385
 Alpha  occ. eigenvalues --   -3.12928  -3.12628  -3.12503  -3.12423  -3.12382
 Alpha  occ. eigenvalues --   -2.86298  -1.81325  -1.81151  -1.78600  -1.21522
 Alpha  occ. eigenvalues --   -1.12935  -1.12518  -1.02807  -1.02797  -1.02432
 Alpha  occ. eigenvalues --   -1.02390  -1.02294  -0.79590  -0.73598  -0.73453
 Alpha  occ. eigenvalues --   -0.72106  -0.71403  -0.70598  -0.70479  -0.69653
 Alpha  occ. eigenvalues --   -0.69445  -0.69237  -0.69205  -0.68414  -0.63850
 Alpha  occ. eigenvalues --   -0.61427  -0.61129  -0.57331  -0.57034  -0.56808
 Alpha  occ. eigenvalues --   -0.56594  -0.56070  -0.55676  -0.53805  -0.52971
 Alpha  occ. eigenvalues --   -0.50206  -0.49152  -0.48389  -0.45142  -0.43254
 Alpha  occ. eigenvalues --   -0.42606  -0.42466  -0.42169  -0.41946  -0.41661
 Alpha  occ. eigenvalues --   -0.41202  -0.40986  -0.40808  -0.40465  -0.39584
 Alpha  occ. eigenvalues --   -0.38724  -0.38388  -0.38013  -0.37761  -0.37656
 Alpha  occ. eigenvalues --   -0.37414  -0.37321  -0.36834  -0.36621  -0.36288
 Alpha  occ. eigenvalues --   -0.35505  -0.35293  -0.35178  -0.34935  -0.34870
 Alpha  occ. eigenvalues --   -0.34033  -0.33532  -0.33358  -0.33275  -0.32740
 Alpha  occ. eigenvalues --   -0.32520  -0.32268  -0.32095  -0.31940  -0.31763
 Alpha  occ. eigenvalues --   -0.31306  -0.31232  -0.31044  -0.30566  -0.30273
 Alpha  occ. eigenvalues --   -0.29128  -0.28822  -0.28438  -0.28215  -0.27532
 Alpha  occ. eigenvalues --   -0.27515  -0.27291  -0.26253  -0.25911  -0.25845
 Alpha  occ. eigenvalues --   -0.25612  -0.25403  -0.24231  -0.23904  -0.22517
 Alpha  occ. eigenvalues --   -0.21712  -0.20247
 Alpha virt. eigenvalues --   -0.08241  -0.06585  -0.06426  -0.05292  -0.04421
 Alpha virt. eigenvalues --   -0.03001  -0.02328  -0.01740  -0.01570  -0.00631
 Alpha virt. eigenvalues --   -0.00372  -0.00155   0.00045   0.00678   0.01292

 Mulliken charges:
               1
     1  Pt   0.372361
     2  P    0.043514
     3  P    0.217147
     4  C   -0.353111
     5  H    0.087365
     6  H    0.093629
     7  C   -0.177238
     8  H    0.109245
     9  H    0.137762
    10  H    0.114185
    11  C   -0.324130
    12  H    0.098018
    13  C   -0.308536
    14  H    0.107366
    15  H    0.082543
    16  C   -0.105623
    17  H    0.116129
    18  H    0.061871
    19  H    0.095572
    20  C   -0.399801
    21  H    0.111414
    22  H    0.081161
    23  C   -0.110514
    24  H    0.106219
    25  H    0.073338
    26  H    0.132402
    27  C   -0.407302
    28  H    0.076977
    29  H    0.081964
    30  C   -0.181768
    31  H    0.137229
    32  H    0.114228
    33  H    0.113566
    34  C   -0.425189
    35  H    0.103338
    36  H    0.087647
    37  C   -0.097270
    38  H    0.135936
    39  H    0.074308
    40  H    0.092812
    41  Sn   0.308054
    42  Cl  -0.288332
    43  Cl  -0.279310
    44  Cl  -0.224075
    45  C   -0.171624
    46  H    0.132733
    47  H    0.115779
    48  H    0.111504
    49  H    0.078825
    50  C    0.277417
    51  C   -0.403007
    52  C    0.042726
    53  C    0.522435
    54  H    0.043256
    55  C   -0.012182
    56  H    0.066026
    57  C   -0.863807
    58  H    0.132241
    59  H    0.144211
    60  C   -0.038403
    61  F   -0.021961
    62  F   -0.013931
    63  F   -0.027340
 Sum of Mulliken charges =   0.00000

 Dipole moment (field-independent basis, Debye):
    X=             10.0068    Y=              0.5185    Z=              4.5087  Tot=             10.9878
 Quadrupole moment (field-independent basis, Debye-Ang):
   XX=           -325.2294   YY=           -225.1753   ZZ=           -254.5131
   XY=             -7.6185   XZ=              3.4089   YZ=              1.0664

 Normal termination of Gaussian 09 at Mon Aug 26 00:10:02 2019.
