 Gaussian 09, Revision D.01,
 Gaussian 09:  EM64L-G09RevD.01 24-Apr-2013

 ----------------------------------------------------------------------
 #PBEPBE/gen scf=(maxcycle=500,conver=3) NMR=GIAO Scrf=(solvent=Dichlor
 omethane)
 ----------------------------------------------------------------------

 -------------
 estrutura 101
 -------------
 Symbolic Z-matrix:
 Charge =  0 Multiplicity = 1

                         Standard orientation:
 ---------------------------------------------------------------------
 Center     Atomic      Atomic             Coordinates (Angstroms)
 Number     Number       Type             X           Y           Z
 ---------------------------------------------------------------------
      1         78           0       -0.044006    0.339675   -0.209435
      2         15           0       -2.384339    1.114019    0.038652
      3         15           0       -0.343847   -1.943121    0.090685
      4          6           0       -3.228476    1.559214   -1.541574
      5          6           0       -4.610066    1.831838   -1.573132
      6          6           0       -2.493277    1.642356   -2.736288
      7          6           0       -5.235159    2.188462   -2.770943
      8          1           0       -5.208696    1.762735   -0.663646
      9          6           0       -3.123444    1.994526   -3.933923
     10          1           0       -1.421420    1.440032   -2.729532
     11          6           0       -4.493445    2.270087   -3.954132
     12          1           0       -6.307202    2.401237   -2.777576
     13          1           0       -2.537002    2.052237   -4.854050
     14          1           0       -4.984270    2.545518   -4.890974
     15          6           0       -2.335260    2.658496    1.055635
     16          6           0       -1.462614    2.705218    2.157558
     17          6           0       -3.150641    3.768900    0.787828
     18          6           0       -1.429358    3.824665    2.992175
     19          1           0       -0.788958    1.868308    2.353497
     20          6           0       -3.104854    4.895351    1.616724
     21          1           0       -3.818634    3.771862   -0.074260
     22          6           0       -2.252038    4.923703    2.723627
     23          1           0       -0.749161    3.841753    3.847304
     24          1           0       -3.740183    5.755381    1.390608
     25          1           0       -2.220802    5.804080    3.370524
     26          6           0       -3.658366    0.093237    0.916303
     27          6           0       -4.384952   -0.884004    0.211745
     28          6           0       -3.914847    0.266474    2.288134
     29          6           0       -5.345840   -1.661293    0.863197
     30          1           0       -4.217352   -1.033921   -0.855520
     31          6           0       -4.874254   -0.516158    2.936908
     32          1           0       -3.377848    1.024450    2.859641
     33          6           0       -5.593297   -1.482081    2.227622
     34          1           0       -5.903456   -2.410980    0.296615
     35          1           0       -5.062514   -0.362206    4.002225
     36          1           0       -6.346851   -2.089905    2.734173
     37          6           0        1.027486   -3.099427   -0.373805
     38          6           0        1.127048   -3.623909   -1.674045
     39          6           0        1.984235   -3.475598    0.584729
     40          6           0        2.153425   -4.513089   -2.002410
     41          1           0        0.399495   -3.352067   -2.439392
     42          6           0        3.012030   -4.360449    0.249859
     43          1           0        1.935356   -3.079570    1.598660
     44          6           0        3.097656   -4.885894   -1.042082
     45          1           0        2.212545   -4.914861   -3.016885
     46          1           0        3.748654   -4.637999    1.007564
     47          1           0        3.899529   -5.582117   -1.300383
     48          6           0       -1.694656   -2.524384   -1.031770
     49          6           0       -2.564642   -3.579115   -0.712238
     50          6           0       -1.785201   -1.929537   -2.302631
     51          6           0       -3.501376   -4.029397   -1.647359
     52          1           0       -2.532184   -4.049767    0.269880
     53          6           0       -2.721863   -2.382116   -3.236178
     54          1           0       -1.115127   -1.108474   -2.566479
     55          6           0       -3.582325   -3.435122   -2.910483
     56          1           0       -4.174079   -4.848714   -1.382475
     57          1           0       -2.777721   -1.907631   -4.218334
     58          1           0       -4.315358   -3.790296   -3.638642
     59          6           0       -0.740694   -2.460378    1.811949
     60          6           0       -0.850620   -3.820691    2.163718
     61          6           0       -0.885033   -1.488708    2.813252
     62          6           0       -1.133228   -4.189796    3.480185
     63          1           0       -0.692974   -4.601038    1.417528
     64          6           0       -1.157271   -1.860977    4.133861
     65          1           0       -0.769131   -0.434676    2.558886
     66          6           0       -1.289474   -3.210343    4.467785
     67          1           0       -1.220280   -5.248223    3.736962
     68          1           0       -1.261301   -1.090705    4.901766
     69          1           0       -1.502357   -3.502140    5.499356
     70         50           0        2.624716    0.404772   -0.182805
     71         35           0        0.498451    2.756301   -0.983215
     72         35           0        3.763556   -0.893460   -2.154569
     73         35           0        3.628248   -0.666693    2.024801
     74          6           0        3.992529    2.127754   -0.206579
     75          1           0        3.762654    2.654361   -1.144454
     76          1           0        4.984840    1.659950   -0.308081
     77          6           0        3.918778    3.040502    1.016584
     78          1           0        2.910946    3.486899    1.087061
     79          1           0        4.057596    2.436498    1.929018
     80          6           0        4.969738    4.167678    1.018876
     81          1           0        4.927323    4.674466    1.999665
     82          1           0        5.978178    3.718712    0.954301
     83          6           0        4.800393    5.208849   -0.089635
     84          1           0        3.807856    5.688389   -0.038066
     85          1           0        5.559234    6.004002   -0.007254
     86          1           0        4.900714    4.763505   -1.093022
 ---------------------------------------------------------------------

 SCF Done:  E(RPBE-PBE) =  -33023.9275851     A.U. after    8 cycles

      1  Pt   Isotropic =  3078.4416   Anisotropy =  1518.0625

      2  P    Isotropic =   252.2302   Anisotropy =    78.0933

      3  P    Isotropic =   244.3147   Anisotropy =   117.6788

      4  C    Isotropic =    17.7793   Anisotropy =   209.6021

      5  C    Isotropic =   -27.5596   Anisotropy =    92.7764

      6  C    Isotropic =    15.0051   Anisotropy =   134.1950

      7  C    Isotropic =    50.9809   Anisotropy =   239.9314

      8  H    Isotropic =    24.8680   Anisotropy =    12.5346

      9  C    Isotropic =    74.7026   Anisotropy =   237.5728

     10  H    Isotropic =    21.9954   Anisotropy =    17.4882

     11  C    Isotropic =    77.3970   Anisotropy =   278.5834

     12  H    Isotropic =    22.2823   Anisotropy =     8.7917

     13  H    Isotropic =    25.2094   Anisotropy =     6.3447

     14  H    Isotropic =    24.4162   Anisotropy =     3.2042

     15  C    Isotropic =    25.7130   Anisotropy =   247.0236

     16  C    Isotropic =    33.0004   Anisotropy =   179.5564

     17  C    Isotropic =    11.4548   Anisotropy =   145.6463

     18  C    Isotropic =    51.5151   Anisotropy =   196.2082

     19  H    Isotropic =    21.9739   Anisotropy =    15.0987

     20  C    Isotropic =    29.1474   Anisotropy =   183.2029

     21  H    Isotropic =    23.8096   Anisotropy =    15.7004

     22  C    Isotropic =    49.7188   Anisotropy =   249.2227

     23  H    Isotropic =    23.6795   Anisotropy =     7.5122

     24  H    Isotropic =    21.9596   Anisotropy =     9.2212

     25  H    Isotropic =    22.4882   Anisotropy =     5.9684

     26  C    Isotropic =   -61.4362   Anisotropy =   192.0734

     27  C    Isotropic =   -73.4203   Anisotropy =   183.7838

     28  C    Isotropic =    -0.7311   Anisotropy =   149.5505

     29  C    Isotropic =    80.1985   Anisotropy =   294.7117

     30  H    Isotropic =    28.8564   Anisotropy =    14.3532

     31  C    Isotropic =   155.8927   Anisotropy =   404.9209

     32  H    Isotropic =    25.2446   Anisotropy =    14.0212

     33  C    Isotropic =    89.2145   Anisotropy =   193.0317

     34  H    Isotropic =    30.5300   Anisotropy =     8.4967

     35  H    Isotropic =    34.3032   Anisotropy =    22.6248

     36  H    Isotropic =    36.5426   Anisotropy =    30.6233

     37  C    Isotropic =    91.9676   Anisotropy =   256.5820

     38  C    Isotropic =   102.7637   Anisotropy =   313.9036

     39  C    Isotropic =   116.0985   Anisotropy =   327.2188

     40  C    Isotropic =    10.0354   Anisotropy =   101.7111

     41  H    Isotropic =    23.6588   Anisotropy =    14.6055

     42  C    Isotropic =    34.7469   Anisotropy =   129.8566

     43  H    Isotropic =    23.2162   Anisotropy =    11.4284

     44  C    Isotropic =   -31.4577   Anisotropy =    77.0109

     45  H    Isotropic =    20.6048   Anisotropy =    11.3813

     46  H    Isotropic =    21.5446   Anisotropy =    10.9111

     47  H    Isotropic =    20.6247   Anisotropy =     8.2170

     48  C    Isotropic =    17.1864   Anisotropy =   101.7475

     49  C    Isotropic =    10.3461   Anisotropy =   119.1981

     50  C    Isotropic =    36.1847   Anisotropy =   156.5652

     51  C    Isotropic =    39.9730   Anisotropy =   210.7989

     52  H    Isotropic =    22.5161   Anisotropy =    13.9783

     53  C    Isotropic =    60.2244   Anisotropy =   202.9564

     54  H    Isotropic =    22.8226   Anisotropy =    14.2663

     55  C    Isotropic =    61.5172   Anisotropy =   258.8315

     56  H    Isotropic =    21.2538   Anisotropy =     9.2139

     57  H    Isotropic =    24.5038   Anisotropy =     7.2704

     58  H    Isotropic =    21.5730   Anisotropy =     7.9041

     59  C    Isotropic =    49.3482   Anisotropy =   142.7279

     60  C    Isotropic =    44.0753   Anisotropy =   188.1453

     61  C    Isotropic =    44.0155   Anisotropy =   195.3112

     62  C    Isotropic =    19.6019   Anisotropy =   143.8363

     63  H    Isotropic =    22.8491   Anisotropy =    11.9890

     64  C    Isotropic =    42.7989   Anisotropy =   176.9168

     65  H    Isotropic =    21.7480   Anisotropy =    13.2173

     66  C    Isotropic =    37.5665   Anisotropy =   209.6057

     67  H    Isotropic =    20.4342   Anisotropy =     9.4771

     68  H    Isotropic =    22.7584   Anisotropy =     7.4540

     69  H    Isotropic =    20.1028   Anisotropy =     8.2445

     70  Sn   Isotropic =  1867.0045   Anisotropy =   592.2394

     71  Br   Isotropic =  2619.2766   Anisotropy =  1391.1729

     72  Br   Isotropic =  2393.2033   Anisotropy =   604.6408

     73  Br   Isotropic =  2386.7617   Anisotropy =   571.0058

     74  C    Isotropic =   149.5675   Anisotropy =    47.0845

     75  H    Isotropic =    29.4366   Anisotropy =     6.9353

     76  H    Isotropic =    32.9340   Anisotropy =     7.4623

     77  C    Isotropic =   155.6405   Anisotropy =    36.8009

     78  H    Isotropic =    28.3678   Anisotropy =    12.4033

     79  H    Isotropic =    29.0002   Anisotropy =    12.6153

     80  C    Isotropic =   152.1691   Anisotropy =    28.1057

     81  H    Isotropic =    30.0455   Anisotropy =     9.4556

     82  H    Isotropic =    30.6500   Anisotropy =     7.5705

     83  C    Isotropic =   169.2361   Anisotropy =    24.0189

     84  H    Isotropic =    30.9270   Anisotropy =     7.0713

     85  H    Isotropic =    30.8379   Anisotropy =    12.3609

     86  H    Isotropic =    29.9038   Anisotropy =     5.6112

 The electronic state is 1-A.
 Alpha  occ. eigenvalues -- ********************-478.58804-478.58750-478.57651
 Alpha  occ. eigenvalues -- -427.54336-414.87368-414.87356-414.87089-149.63038
 Alpha  occ. eigenvalues -- -141.90851-141.90840-141.90711 -99.92374 -92.08189
 Alpha  occ. eigenvalues --  -92.08162 -92.07756 -79.04102 -79.03995 -79.03777
 Alpha  occ. eigenvalues --  -79.03756 -79.03688 -76.32675 -76.30815 -61.50663
 Alpha  occ. eigenvalues --  -61.50626 -61.49556 -55.69075 -55.69042 -55.68888
 Alpha  occ. eigenvalues --  -55.68872 -55.68846 -55.68827 -55.67958 -55.67767
 Alpha  occ. eigenvalues --  -55.67757 -28.79579 -25.14283 -25.14250 -25.13846
 Alpha  occ. eigenvalues --  -20.83810 -17.69170 -17.69166 -17.68901 -17.68877
 Alpha  occ. eigenvalues --  -17.68791 -17.40562 -17.40526 -17.39658 -11.59011
 Alpha  occ. eigenvalues --  -11.58622 -11.58170 -11.58128 -11.57982  -9.93024
 Alpha  occ. eigenvalues --   -9.92830  -9.92730  -9.92391  -9.92245  -9.91488
 Alpha  occ. eigenvalues --   -9.91464  -9.91375  -9.91294  -9.91121  -9.91104
 Alpha  occ. eigenvalues --   -9.91082  -9.91038  -9.91030  -9.90966  -9.90936
 Alpha  occ. eigenvalues --   -9.90903  -9.90894  -9.90884  -9.90878  -9.90849
 Alpha  occ. eigenvalues --   -9.90757  -9.90755  -9.90728  -9.90717  -9.90714
 Alpha  occ. eigenvalues --   -9.90675  -9.90626  -9.90617  -9.90547  -9.90493
 Alpha  occ. eigenvalues --   -9.90351  -9.90213  -9.90094  -9.90071  -9.89840
 Alpha  occ. eigenvalues --   -9.89219  -9.88374  -9.88097  -9.87002  -8.33559
 Alpha  occ. eigenvalues --   -8.33548  -8.32597  -6.35570  -6.33843  -6.24262
 Alpha  occ. eigenvalues --   -6.24230  -6.23689  -6.23683  -6.23640  -6.23636
 Alpha  occ. eigenvalues --   -6.23286  -6.22720  -6.22691  -4.58113  -4.58094
 Alpha  occ. eigenvalues --   -4.57847  -4.56399  -4.56382  -4.56051  -4.48505
 Alpha  occ. eigenvalues --   -3.22101  -3.22052  -3.21308  -3.13869  -3.13861
 Alpha  occ. eigenvalues --   -3.13397  -3.13129  -3.12962  -3.12928  -3.12862
 Alpha  occ. eigenvalues --   -2.86767  -2.45243  -2.45215  -2.45102  -2.45080
 Alpha  occ. eigenvalues --   -2.45064  -2.45049  -2.44645  -2.44644  -2.44640
 Alpha  occ. eigenvalues --   -2.44639  -2.44263  -2.44122  -2.44103  -2.43685
 Alpha  occ. eigenvalues --   -2.43685  -1.81843  -1.81506  -1.79135  -1.01223
 Alpha  occ. eigenvalues --   -1.01094  -1.00594  -1.00511  -1.00482  -0.80268
 Alpha  occ. eigenvalues --   -0.79814  -0.79471  -0.79031  -0.78963  -0.78895
 Alpha  occ. eigenvalues --   -0.72197  -0.71719  -0.71638  -0.69440  -0.69287
 Alpha  occ. eigenvalues --   -0.69055  -0.69024  -0.68858  -0.68707  -0.68531
 Alpha  occ. eigenvalues --   -0.68431  -0.68413  -0.68323  -0.67016  -0.66226
 Alpha  occ. eigenvalues --   -0.65671  -0.64286  -0.61325  -0.60705  -0.56791
 Alpha  occ. eigenvalues --   -0.56603  -0.56212  -0.56052  -0.55740  -0.55606
 Alpha  occ. eigenvalues --   -0.55464  -0.55025  -0.54928  -0.54885  -0.54731
 Alpha  occ. eigenvalues --   -0.52254  -0.51798  -0.50319  -0.48084  -0.47817
 Alpha  occ. eigenvalues --   -0.47693  -0.47602  -0.46125  -0.45782  -0.42647
 Alpha  occ. eigenvalues --   -0.42240  -0.42156  -0.41880  -0.41784  -0.41604
 Alpha  occ. eigenvalues --   -0.41425  -0.41129  -0.41108  -0.41049  -0.40826
 Alpha  occ. eigenvalues --   -0.40692  -0.40511  -0.40366  -0.39092  -0.38819
 Alpha  occ. eigenvalues --   -0.38632  -0.38457  -0.38424  -0.38319  -0.38254
 Alpha  occ. eigenvalues --   -0.38179  -0.37832  -0.37489  -0.37157  -0.36738
 Alpha  occ. eigenvalues --   -0.36623  -0.35554  -0.34671  -0.34434  -0.34386
 Alpha  occ. eigenvalues --   -0.34207  -0.34104  -0.33924  -0.33592  -0.32763
 Alpha  occ. eigenvalues --   -0.32197  -0.32013  -0.31707  -0.31611  -0.31488
 Alpha  occ. eigenvalues --   -0.31257  -0.31134  -0.31059  -0.30879  -0.30493
 Alpha  occ. eigenvalues --   -0.30368  -0.30203  -0.29918  -0.29609  -0.29148
 Alpha  occ. eigenvalues --   -0.28201  -0.28027  -0.27782  -0.26871  -0.26675
 Alpha  occ. eigenvalues --   -0.25976  -0.25546  -0.25330  -0.25207  -0.25059
 Alpha  occ. eigenvalues --   -0.24926  -0.24878  -0.24569  -0.24350  -0.24192
 Alpha  occ. eigenvalues --   -0.24131  -0.24041  -0.23920  -0.23823  -0.23364
 Alpha  occ. eigenvalues --   -0.23191  -0.23078  -0.22484  -0.22037  -0.21515
 Alpha  occ. eigenvalues --   -0.19844
 Alpha virt. eigenvalues --   -0.11455  -0.08070  -0.07533  -0.06895  -0.06651
 Alpha virt. eigenvalues --   -0.06499  -0.06253  -0.06210  -0.05909  -0.05575
 Alpha virt. eigenvalues --   -0.05393  -0.05007  -0.04822  -0.04516  -0.03698

 Mulliken charges:
               1
     1  Pt   0.156661
     2  P    1.334411
     3  P    1.011592
     4  C   -0.827532
     5  C    0.373168
     6  C    0.269392
     7  C    0.064657
     8  H    0.098899
     9  C   -0.197443
    10  H    0.098483
    11  C   -0.635002
    12  H    0.140570
    13  H    0.137575
    14  H    0.155608
    15  C   -0.812947
    16  C    0.657519
    17  C    0.184809
    18  C    0.030504
    19  H    0.060790
    20  C   -0.246478
    21  H    0.097494
    22  C   -0.620873
    23  H    0.146326
    24  H    0.144748
    25  H    0.150852
    26  C   -0.902603
    27  C    0.572679
    28  C    0.145927
    29  C   -0.030096
    30  H    0.045563
    31  C   -0.179023
    32  H    0.074627
    33  C   -0.491185
    34  H    0.126235
    35  H    0.134470
    36  H    0.147531
    37  C   -0.812796
    38  C    0.129314
    39  C    0.389301
    40  C   -0.096609
    41  H    0.091691
    42  C   -0.098286
    43  H    0.133032
    44  C   -0.490592
    45  H    0.138102
    46  H    0.137696
    47  H    0.149057
    48  C   -0.755058
    49  C    0.148799
    50  C    0.477897
    51  C   -0.086653
    52  H    0.051563
    53  C    0.059019
    54  H    0.037318
    55  C   -0.494465
    56  H    0.129026
    57  H    0.130589
    58  H    0.147053
    59  C   -0.879518
    60  C    0.403390
    61  C    0.372547
    62  C    0.057173
    63  H    0.091390
    64  C   -0.280964
    65  H    0.065246
    66  C   -0.566170
    67  H    0.141403
    68  H    0.129177
    69  H    0.153087
    70  Sn  -0.250773
    71  Br  -0.288891
    72  Br  -0.231360
    73  Br  -0.237568
    74  C   -0.206282
    75  H    0.107119
    76  H    0.105890
    77  C   -0.074168
    78  H    0.085598
    79  H    0.107013
    80  C   -0.271108
    81  H    0.138097
    82  H    0.126692
    83  C   -0.331510
    84  H    0.124309
    85  H    0.152653
    86  H    0.124621
 Sum of Mulliken charges =   0.00000

 Dipole moment (field-independent basis, Debye):
    X=            -15.5363    Y=             -4.3140    Z=              2.0117  Tot=             16.2492
 Quadrupole moment (field-independent basis, Debye-Ang):
   XX=           -367.5237   YY=           -343.0727   ZZ=           -345.3032
   XY=              3.7754   XZ=              7.7864   YZ=              5.4447

 Normal termination of Gaussian 09 at Sat Nov 23 04:24:15 2019.
