 Gaussian 09, Revision D.01,
 Gaussian 09:  EM64L-G09RevD.01 24-Apr-2013

 ----------------------------------------------------------------------
 #PBEPBE/gen scf=(maxcycle=500,conver=3) NMR=GIAO Scrf=(solvent=Dichlor
 omethane)
 ----------------------------------------------------------------------

 -------------
 estrutura 105
 -------------
 Symbolic Z-matrix:
 Charge =  0 Multiplicity = 1

                         Standard orientation:
 ---------------------------------------------------------------------
 Center     Atomic      Atomic             Coordinates (Angstroms)
 Number     Number       Type             X           Y           Z
 ---------------------------------------------------------------------
      1         78           0       -0.067476    0.363245   -0.151010
      2         15           0        2.328499    0.598315   -0.076473
      3          6           0        3.476553   -0.787088    0.362614
      4          6           0        4.113731   -0.870079    1.611066
      5          6           0        3.738757   -1.775339   -0.602694
      6          6           0        4.999708   -1.916587    1.885038
      7          1           0        3.933410   -0.115665    2.377536
      8          6           0        4.620513   -2.820755   -0.323731
      9          1           0        3.249093   -1.739756   -1.576603
     10          6           0        5.256357   -2.893806    0.919897
     11          1           0        5.492351   -1.962699    2.859454
     12          1           0        4.809568   -3.582135   -1.084893
     13          1           0        5.951246   -3.709347    1.134793
     14          6           0        2.673375    1.867966    1.217287
     15          6           0        3.497384    2.981155    0.999708
     16          6           0        2.061771    1.703621    2.473107
     17          6           0        3.711167    3.911361    2.023762
     18          1           0        3.967286    3.139730    0.028618
     19          6           0        2.285611    2.628255    3.496083
     20          1           0        1.400433    0.851511    2.650751
     21          6           0        3.109953    3.737007    3.272598
     22          1           0        4.348446    4.779820    1.838184
     23          1           0        1.806138    2.486530    4.467408
     24          1           0        3.277871    4.466315    4.069416
     25          6           0        3.060848    1.194939   -1.660543
     26          6           0        4.460014    1.280366   -1.802381
     27          6           0        2.243378    1.550198   -2.745460
     28          6           0        5.025111    1.732926   -2.996908
     29          1           0        5.116855    0.982382   -0.981385
     30          6           0        2.815225    1.999937   -3.940828
     31          1           0        1.158728    1.486774   -2.654615
     32          6           0        4.203012    2.098785   -4.067717
     33          1           0        6.113570    1.792468   -3.091824
     34          1           0        2.168342    2.276185   -4.775120
     35          1           0        4.645861    2.453819   -5.002282
     36         50           0       -0.152813   -2.238000    0.050288
     37         17           0       -0.067928    2.805263   -0.480823
     38         15           0       -2.443511    0.379861    0.023081
     39          6           0       -3.286174    2.009807   -0.166434
     40          6           0       -3.366613    2.560151   -1.459590
     41          6           0       -3.845201    2.708485    0.913970
     42          6           0       -4.002473    3.784244   -1.666051
     43          1           0       -2.933346    2.031164   -2.312251
     44          6           0       -4.480179    3.938378    0.702306
     45          1           0       -3.796524    2.301022    1.925517
     46          6           0       -4.560844    4.478089   -0.584265
     47          1           0       -4.059938    4.199577   -2.676106
     48          1           0       -4.915770    4.471911    1.551849
     49          1           0       -5.058407    5.437408   -0.746742
     50          6           0       -3.326605   -0.627567   -1.240399
     51          6           0       -4.699687   -0.928600   -1.146777
     52          6           0       -2.622295   -1.004441   -2.398590
     53          6           0       -5.332628   -1.649063   -2.163046
     54          1           0       -5.289156   -0.592787   -0.290116
     55          6           0       -3.266945   -1.699944   -3.427232
     56          1           0       -1.566746   -0.734976   -2.505035
     57          6           0       -4.617377   -2.037860   -3.303972
     58          1           0       -6.393201   -1.905122   -2.066723
     59          1           0       -2.705717   -1.976728   -4.323867
     60          1           0       -5.119481   -2.593172   -4.099751
     61          6           0       -2.844475   -0.193623    1.729943
     62          6           0       -3.783021   -1.185402    2.056354
     63          6           0       -2.096223    0.401339    2.765734
     64          6           0       -3.977300   -1.563780    3.389923
     65          1           0       -4.357842   -1.688202    1.280739
     66          6           0       -2.299125    0.026219    4.094749
     67          1           0       -1.341662    1.156331    2.530326
     68          6           0       -3.241034   -0.959305    4.410523
     69          1           0       -4.707325   -2.341781    3.626048
     70          1           0       -1.708211    0.496911    4.883301
     71          1           0       -3.393433   -1.260735    5.449516
     72         17           0        1.185271   -3.158093    1.868816
     73          6           0       -1.814706   -3.631010    0.198250
     74          1           0       -2.265676   -3.571158    1.197431
     75          1           0       -2.561057   -3.409553   -0.576270
     76          1           0       -1.388586   -4.630337    0.034555
     77         17           0        0.848211   -3.199839   -1.978250
 ---------------------------------------------------------------------

 SCF Done:  E(RPBE-PBE) =  -26582.1810183     A.U. after    8 cycles

      1  Pt   Isotropic =  3134.4862   Anisotropy =  1438.5718

      2  P    Isotropic =   273.2329   Anisotropy =    77.9726

      3  C    Isotropic =   115.2674   Anisotropy =   205.2705

      4  C    Isotropic =   114.3767   Anisotropy =   297.6019

      5  C    Isotropic =   114.5520   Anisotropy =   292.1211

      6  C    Isotropic =     5.4997   Anisotropy =    54.1041

      7  H    Isotropic =    23.6568   Anisotropy =    16.2000

      8  C    Isotropic =    31.6287   Anisotropy =    95.7903

      9  H    Isotropic =    22.0289   Anisotropy =    14.4137

     10  C    Isotropic =   -27.6391   Anisotropy =    69.9513

     11  H    Isotropic =    20.8764   Anisotropy =    11.7960

     12  H    Isotropic =    22.1745   Anisotropy =    10.2434

     13  H    Isotropic =    20.6442   Anisotropy =     8.5791

     14  C    Isotropic =    76.5021   Anisotropy =   117.4948

     15  C    Isotropic =    84.8758   Anisotropy =   229.1598

     16  C    Isotropic =    65.8827   Anisotropy =   193.1059

     17  C    Isotropic =     2.5086   Anisotropy =    79.7370

     18  H    Isotropic =    22.9305   Anisotropy =    13.6936

     19  C    Isotropic =    40.9995   Anisotropy =   147.3751

     20  H    Isotropic =    22.8856   Anisotropy =    13.7306

     21  C    Isotropic =    13.0112   Anisotropy =   137.9454

     22  H    Isotropic =    17.8838   Anisotropy =    14.3229

     23  H    Isotropic =    20.9398   Anisotropy =    10.7060

     24  H    Isotropic =    17.6313   Anisotropy =    12.5425

     25  C    Isotropic =    71.7209   Anisotropy =    94.2733

     26  C    Isotropic =    86.8535   Anisotropy =   254.0957

     27  C    Isotropic =    76.8998   Anisotropy =   274.8594

     28  C    Isotropic =     0.5802   Anisotropy =    89.5809

     29  H    Isotropic =    21.8042   Anisotropy =    15.5785

     30  C    Isotropic =    28.5097   Anisotropy =   131.5149

     31  H    Isotropic =    21.5860   Anisotropy =    14.3462

     32  C    Isotropic =     9.0261   Anisotropy =   158.3019

     33  H    Isotropic =    16.2822   Anisotropy =    15.8259

     34  H    Isotropic =    20.5419   Anisotropy =    11.1267

     35  H    Isotropic =    16.0166   Anisotropy =    14.3243

     36  Sn   Isotropic =  1865.7493   Anisotropy =   904.2417

     37  Cl   Isotropic =   804.0489   Anisotropy =   280.1541

     38  P    Isotropic =   258.5809   Anisotropy =   126.8780

     39  C    Isotropic =    -0.9301   Anisotropy =   231.9658

     40  C    Isotropic =   -14.8417   Anisotropy =   111.8618

     41  C    Isotropic =     0.8646   Anisotropy =   106.4818

     42  C    Isotropic =    80.7749   Anisotropy =   254.3725

     43  H    Isotropic =    24.9753   Anisotropy =    13.0654

     44  C    Isotropic =    88.3646   Anisotropy =   281.9189

     45  H    Isotropic =    25.4419   Anisotropy =    12.2989

     46  C    Isotropic =    77.5409   Anisotropy =   236.7184

     47  H    Isotropic =    26.9946   Anisotropy =     4.3185

     48  H    Isotropic =    27.8879   Anisotropy =     5.2007

     49  H    Isotropic =    29.1170   Anisotropy =     9.1118

     50  C    Isotropic =    17.3907   Anisotropy =   218.0012

     51  C    Isotropic =   -26.3050   Anisotropy =    70.4374

     52  C    Isotropic =    26.0413   Anisotropy =   134.1249

     53  C    Isotropic =    40.2501   Anisotropy =   241.1250

     54  H    Isotropic =    21.9809   Anisotropy =    14.0048

     55  C    Isotropic =    69.1489   Anisotropy =   230.3813

     56  H    Isotropic =    22.5041   Anisotropy =    17.5783

     57  C    Isotropic =    72.9884   Anisotropy =   315.9511

     58  H    Isotropic =    19.8015   Anisotropy =    11.3569

     59  H    Isotropic =    23.9373   Anisotropy =     8.5051

     60  H    Isotropic =    21.4564   Anisotropy =     7.7436

     61  C    Isotropic =    36.5551   Anisotropy =   274.1918

     62  C    Isotropic =    24.4945   Anisotropy =   149.6091

     63  C    Isotropic =    40.2688   Anisotropy =   207.2311

     64  C    Isotropic =    45.8662   Anisotropy =   169.1619

     65  H    Isotropic =    23.9155   Anisotropy =    11.9753

     66  C    Isotropic =    72.4432   Anisotropy =   226.6127

     67  H    Isotropic =    22.3535   Anisotropy =    13.5972

     68  C    Isotropic =    30.2153   Anisotropy =   124.9554

     69  H    Isotropic =    25.2070   Anisotropy =     4.3954

     70  H    Isotropic =    25.0004   Anisotropy =     5.9384

     71  H    Isotropic =    26.5914   Anisotropy =     3.9771

     72  Cl   Isotropic =   864.8109   Anisotropy =   202.4026

     73  C    Isotropic =   166.4994   Anisotropy =    35.8014

     74  H    Isotropic =    31.6052   Anisotropy =    11.7244

     75  H    Isotropic =    32.6503   Anisotropy =     8.2319

     76  H    Isotropic =    30.7837   Anisotropy =    13.6274

     77  Cl   Isotropic =   835.5557   Anisotropy =   214.4600

 The electronic state is 1-A.
 Alpha  occ. eigenvalues -- ********************-427.54170-414.87228-414.87158
 Alpha  occ. eigenvalues -- -414.86904-149.64307-141.92140-141.92122-141.92004
 Alpha  occ. eigenvalues -- -100.55327-100.55246-100.51080 -99.92257 -92.08112
 Alpha  occ. eigenvalues --  -92.08012 -92.07618 -79.03989 -79.03871 -79.03660
 Alpha  occ. eigenvalues --  -79.03597 -79.03543 -76.32004 -76.31653 -28.80678
 Alpha  occ. eigenvalues --  -25.15394 -25.15335 -25.14970 -20.83795 -17.70286
 Alpha  occ. eigenvalues --  -17.70280 -17.70042 -17.70000 -17.69929 -17.40646
 Alpha  occ. eigenvalues --  -17.40445 -17.39612 -11.59038 -11.58619 -11.58190
 Alpha  occ. eigenvalues --  -11.58050 -11.57942  -9.93013  -9.92957  -9.92940
 Alpha  occ. eigenvalues --   -9.92841  -9.92829  -9.91843  -9.91747  -9.91545
 Alpha  occ. eigenvalues --   -9.91472  -9.91333  -9.91271  -9.91269  -9.91259
 Alpha  occ. eigenvalues --   -9.91191  -9.91119  -9.91055  -9.91038  -9.90940
 Alpha  occ. eigenvalues --   -9.90865  -9.90805  -9.90798  -9.90727  -9.90698
 Alpha  occ. eigenvalues --   -9.90664  -9.90661  -9.90622  -9.90521  -9.90459
 Alpha  occ. eigenvalues --   -9.90427  -9.90214  -9.90175  -9.90157  -9.90120
 Alpha  occ. eigenvalues --   -9.90060  -9.90010  -9.89863  -9.87341  -9.13135
 Alpha  occ. eigenvalues --   -9.13068  -9.09066  -6.96913  -6.96831  -6.96359
 Alpha  occ. eigenvalues --   -6.96304  -6.96289  -6.96252  -6.92795  -6.92300
 Alpha  occ. eigenvalues --   -6.92223  -6.35013  -6.34748  -4.57551  -4.57541
 Alpha  occ. eigenvalues --   -4.57296  -4.57259  -4.57256  -4.56981  -4.49405
 Alpha  occ. eigenvalues --   -3.22993  -3.22905  -3.22229  -3.13902  -3.13877
 Alpha  occ. eigenvalues --   -3.13407  -3.13107  -3.12977  -3.12853  -3.12816
 Alpha  occ. eigenvalues --   -2.86808  -1.82033  -1.81446  -1.79104  -1.02164
 Alpha  occ. eigenvalues --   -1.01945  -1.01487  -1.01388  -1.01382  -0.80284
 Alpha  occ. eigenvalues --   -0.79921  -0.79605  -0.79010  -0.78962  -0.78809
 Alpha  occ. eigenvalues --   -0.72191  -0.71876  -0.71265  -0.70309  -0.69554
 Alpha  occ. eigenvalues --   -0.69457  -0.69112  -0.69016  -0.68785  -0.68673
 Alpha  occ. eigenvalues --   -0.68615  -0.68534  -0.68311  -0.68268  -0.66775
 Alpha  occ. eigenvalues --   -0.61423  -0.61308  -0.60902  -0.56621  -0.56359
 Alpha  occ. eigenvalues --   -0.56141  -0.55691  -0.55633  -0.55406  -0.55140
 Alpha  occ. eigenvalues --   -0.55065  -0.54735  -0.54703  -0.52312  -0.51822
 Alpha  occ. eigenvalues --   -0.48133  -0.47891  -0.47687  -0.47517  -0.46218
 Alpha  occ. eigenvalues --   -0.45607  -0.42728  -0.42414  -0.42152  -0.41943
 Alpha  occ. eigenvalues --   -0.41867  -0.41620  -0.41485  -0.41225  -0.41044
 Alpha  occ. eigenvalues --   -0.40898  -0.40795  -0.40627  -0.40179  -0.39210
 Alpha  occ. eigenvalues --   -0.38823  -0.38630  -0.38448  -0.38373  -0.38287
 Alpha  occ. eigenvalues --   -0.38172  -0.37967  -0.37594  -0.37384  -0.36894
 Alpha  occ. eigenvalues --   -0.36358  -0.35994  -0.35089  -0.34586  -0.34487
 Alpha  occ. eigenvalues --   -0.34140  -0.34034  -0.33819  -0.33439  -0.32756
 Alpha  occ. eigenvalues --   -0.32169  -0.31934  -0.31784  -0.31670  -0.31414
 Alpha  occ. eigenvalues --   -0.31265  -0.31168  -0.31117  -0.30994  -0.30425
 Alpha  occ. eigenvalues --   -0.30296  -0.29979  -0.29201  -0.28815  -0.27864
 Alpha  occ. eigenvalues --   -0.27677  -0.27394  -0.26697  -0.26415  -0.26167
 Alpha  occ. eigenvalues --   -0.25696  -0.25320  -0.25241  -0.24901  -0.24793
 Alpha  occ. eigenvalues --   -0.24732  -0.24545  -0.24161  -0.24141  -0.23970
 Alpha  occ. eigenvalues --   -0.23833  -0.23551  -0.22793  -0.22233  -0.21811
 Alpha  occ. eigenvalues --   -0.21267  -0.21183
 Alpha virt. eigenvalues --   -0.10754  -0.08013  -0.07466  -0.07097  -0.06630
 Alpha virt. eigenvalues --   -0.06485  -0.06393  -0.06159  -0.05901  -0.05650
 Alpha virt. eigenvalues --   -0.05443  -0.04945  -0.04713  -0.04283  -0.03059

 Mulliken charges:
               1
     1  Pt   0.139948
     2  P    0.991598
     3  C   -0.841042
     4  C    0.187724
     5  C    0.525089
     6  C   -0.151524
     7  H    0.093912
     8  C   -0.069328
     9  H    0.105183
    10  C   -0.531136
    11  H    0.143031
    12  H    0.142659
    13  H    0.151978
    14  C   -0.689861
    15  C    0.181211
    16  C    0.557107
    17  C   -0.270929
    18  H    0.099291
    19  C   -0.018927
    20  H    0.067015
    21  C   -0.556948
    22  H    0.144594
    23  H    0.142504
    24  H    0.155030
    25  C   -0.823265
    26  C    0.441051
    27  C    0.242780
    28  C    0.057169
    29  H    0.100197
    30  C   -0.292459
    31  H    0.098123
    32  C   -0.610490
    33  H    0.144178
    34  H    0.142758
    35  H    0.153151
    36  Sn   0.262258
    37  Cl  -0.448464
    38  P    1.040192
    39  C   -0.927299
    40  C    0.432477
    41  C    0.325316
    42  C    0.000707
    43  H    0.089735
    44  C   -0.203911
    45  H    0.105982
    46  C   -0.547362
    47  H    0.148977
    48  H    0.145205
    49  H    0.155059
    50  C   -0.831599
    51  C    0.286409
    52  C    0.376360
    53  C   -0.057326
    54  H    0.102222
    55  C   -0.062713
    56  H    0.069054
    57  C   -0.560507
    58  H    0.143779
    59  H    0.143929
    60  H    0.154331
    61  C   -0.727506
    62  C    0.246717
    63  C    0.451645
    64  C   -0.165163
    65  H    0.076607
    66  C   -0.040723
    67  H    0.065632
    68  C   -0.595021
    69  H    0.141572
    70  H    0.142204
    71  H    0.152470
    72  Cl  -0.205736
    73  C   -0.257786
    74  H    0.094048
    75  H    0.088937
    76  H    0.114318
    77  Cl  -0.276395
 Sum of Mulliken charges =   0.00000

 Dipole moment (field-independent basis, Debye):
    X=             -4.8326    Y=              2.7452    Z=              1.3590  Tot=              5.7216
 Quadrupole moment (field-independent basis, Debye-Ang):
   XX=           -274.1055   YY=           -351.3159   ZZ=           -298.2818
   XY=             18.1635   XZ=             -2.0314   YZ=              4.1850

 Normal termination of Gaussian 09 at Wed Nov 27 20:29:31 2019.
