 Gaussian 09, Revision D.01,
 Gaussian 09:  EM64L-G09RevD.01 24-Apr-2013

 ----------------------------------------------------------------------
 #PBEPBE/gen scf=(maxcycle=500,conver=4) NMR=GIAO Scrf=(solvent=Dichlor
 omethane)
 ----------------------------------------------------------------------

 ------------
 estrutura 77
 ------------
 Symbolic Z-matrix:
 Charge =  0 Multiplicity = 1

                         Standard orientation:
 ---------------------------------------------------------------------
 Center     Atomic      Atomic             Coordinates (Angstroms)
 Number     Number       Type             X           Y           Z
 ---------------------------------------------------------------------
      1         78           0       -0.325887   -0.040171   -0.034857
      2         15           0       -0.192962    2.366245   -0.082335
      3         15           0       -0.564631   -2.422395    0.091525
      4          6           0        0.002341    2.963287    1.662253
      5          1           0        0.835098    2.369869    2.072786
      6          1           0       -0.905803    2.627281    2.189563
      7          6           0        0.253484    4.456889    1.891593
      8          1           0       -0.527023    5.090742    1.443026
      9          1           0        0.269055    4.668945    2.972801
     10          1           0        1.225103    4.772892    1.483828
     11          6           0        1.304629    2.982076   -1.012167
     12          1           0        1.479367    2.265063   -1.828002
     13          6           0       -1.609878    3.327563   -0.812369
     14          1           0       -1.193288    4.296874   -1.122303
     15          1           0       -1.891858    2.799114   -1.736806
     16          6           0       -2.841326    3.566284    0.065069
     17          1           0       -3.575939    4.162877   -0.498777
     18          1           0       -3.328883    2.633220    0.366992
     19          1           0       -2.594448    4.132800    0.974513
     20          6           0        0.315547   -3.332174   -1.259277
     21          1           0        0.149234   -4.410567   -1.101923
     22          1           0        1.390261   -3.160425   -1.095643
     23          6           0       -0.099167   -2.909858   -2.670266
     24          1           0       -1.160758   -3.122643   -2.869765
     25          1           0        0.063932   -1.831851   -2.826609
     26          1           0        0.495728   -3.454533   -3.420852
     27          6           0       -2.310711   -3.047977    0.040604
     28          1           0       -2.799980   -2.629291    0.933479
     29          1           0       -2.798611   -2.554189   -0.813630
     30          6           0       -2.497213   -4.565805   -0.023846
     31          1           0       -3.571290   -4.808235    0.020351
     32          1           0       -2.105587   -4.992028   -0.958905
     33          1           0       -2.011017   -5.088062    0.815374
     34          6           0        0.139865   -3.145478    1.646443
     35          1           0       -0.139975   -4.211571    1.669295
     36          1           0        1.235711   -3.111886    1.537903
     37          6           0       -0.299534   -2.437855    2.930878
     38          1           0        0.152003   -2.930923    3.807354
     39          1           0        0.018921   -1.382946    2.933362
     40          1           0       -1.393947   -2.459545    3.067631
     41         50           0        2.404347   -0.252432   -0.005763
     42         17           0        3.628075    0.258055   -2.072466
     43         17           0        3.609851    1.225904    1.554433
     44         17           0        3.642721   -2.307259    0.531058
     45          6           0        1.312910    4.406521   -1.576090
     46          1           0        2.308668    4.618961   -1.997097
     47          1           0        0.583917    4.532091   -2.390431
     48          1           0        1.108554    5.171611   -0.813385
     49          1           0        2.141006    2.848917   -0.306519
     50          6           0       -2.374015    0.114162   -0.064254
     51          6           0       -3.125830    0.122412    1.122317
     52          6           0       -3.075361    0.182398   -1.279912
     53          6           0       -4.525329    0.191768    1.092095
     54          1           0       -2.622196    0.076373    2.092648
     55          6           0       -4.473728    0.253010   -1.305775
     56          1           0       -2.531772    0.180444   -2.229504
     57          6           0       -5.228584    0.254907   -0.121386
     58          1           0       -5.079813    0.200461    2.036140
     59          1           0       -4.987242    0.308121   -2.271260
     60          6           0       -6.737999    0.297756   -0.156592
     61          1           0       -7.164155   -0.714433   -0.274631
     62          1           0       -7.153244    0.718858    0.772140
     63          1           0       -7.105627    0.901553   -1.001367
 ---------------------------------------------------------------------

 SCF Done:  E(RPBE-PBE) =  -25899.3684917     A.U. after   11 cycles

      1  Pt   Isotropic =  3040.1470   Anisotropy =  1106.1899

      2  P    Isotropic =   292.1293   Anisotropy =    30.2953

      3  P    Isotropic =   273.1924   Anisotropy =    54.5126

      4  C    Isotropic =   157.1385   Anisotropy =    33.0204

      5  H    Isotropic =    28.9169   Anisotropy =     7.3877

      6  H    Isotropic =    29.3262   Anisotropy =     5.5524

      7  C    Isotropic =   172.4429   Anisotropy =    20.5383

      8  H    Isotropic =    30.4702   Anisotropy =     8.6793

      9  H    Isotropic =    30.1144   Anisotropy =    13.2563

     10  H    Isotropic =    30.1511   Anisotropy =     8.0010

     11  C    Isotropic =   148.6457   Anisotropy =    29.7724

     12  H    Isotropic =    28.6792   Anisotropy =     9.0769

     13  C    Isotropic =   164.7737   Anisotropy =    22.2118

     14  H    Isotropic =    29.2224   Anisotropy =     9.3444

     15  H    Isotropic =    29.9458   Anisotropy =     5.8358

     16  C    Isotropic =   175.2293   Anisotropy =    19.3095

     17  H    Isotropic =    30.9939   Anisotropy =    12.3666

     18  H    Isotropic =    32.4438   Anisotropy =    15.2095

     19  H    Isotropic =    31.1769   Anisotropy =     8.5128

     20  C    Isotropic =   156.7292   Anisotropy =    20.3482

     21  H    Isotropic =    29.4746   Anisotropy =     9.2795

     22  H    Isotropic =    29.2727   Anisotropy =     9.3930

     23  C    Isotropic =   172.4372   Anisotropy =    19.0757

     24  H    Isotropic =    30.6607   Anisotropy =     9.1192

     25  H    Isotropic =    30.2670   Anisotropy =     5.7247

     26  H    Isotropic =    30.1850   Anisotropy =    13.1126

     27  C    Isotropic =   166.0287   Anisotropy =    25.5370

     28  H    Isotropic =    30.3790   Anisotropy =     8.2402

     29  H    Isotropic =    30.4834   Anisotropy =    10.0116

     30  C    Isotropic =   177.8288   Anisotropy =    17.9437

     31  H    Isotropic =    30.6009   Anisotropy =    12.7911

     32  H    Isotropic =    30.7724   Anisotropy =    10.0440

     33  H    Isotropic =    30.6570   Anisotropy =     9.9625

     34  C    Isotropic =   158.2507   Anisotropy =    22.4653

     35  H    Isotropic =    29.4167   Anisotropy =     9.9818

     36  H    Isotropic =    28.8105   Anisotropy =    10.3868

     37  C    Isotropic =   170.8433   Anisotropy =    19.4515

     38  H    Isotropic =    30.1154   Anisotropy =    13.3433

     39  H    Isotropic =    30.3233   Anisotropy =     6.1108

     40  H    Isotropic =    30.4827   Anisotropy =     8.8240

     41  Sn   Isotropic =  2156.6427   Anisotropy =   829.2795

     42  Cl   Isotropic =   754.5121   Anisotropy =   319.8598

     43  Cl   Isotropic =   750.0499   Anisotropy =   316.5555

     44  Cl   Isotropic =   752.8684   Anisotropy =   295.0236

     45  C    Isotropic =   170.7795   Anisotropy =    20.7464

     46  H    Isotropic =    30.0182   Anisotropy =    12.0269

     47  H    Isotropic =    30.2347   Anisotropy =     9.3273

     48  H    Isotropic =    30.3794   Anisotropy =     8.4751

     49  H    Isotropic =    28.5256   Anisotropy =     9.0899

     50  C    Isotropic =    10.9334   Anisotropy =   179.6745

     51  C    Isotropic =    44.6848   Anisotropy =   157.2382

     52  C    Isotropic =    50.6333   Anisotropy =   155.3213

     53  C    Isotropic =    51.2084   Anisotropy =   145.7083

     54  H    Isotropic =    23.9941   Anisotropy =    13.1298

     55  C    Isotropic =    48.4859   Anisotropy =   156.9120

     56  H    Isotropic =    23.8528   Anisotropy =    13.6008

     57  C    Isotropic =    41.4754   Anisotropy =   188.8383

     58  H    Isotropic =    24.0870   Anisotropy =     7.1114

     59  H    Isotropic =    23.7825   Anisotropy =     7.4527

     60  C    Isotropic =   164.8091   Anisotropy =    38.5242

     61  H    Isotropic =    28.7172   Anisotropy =     9.5136

     62  H    Isotropic =    29.1325   Anisotropy =     8.3015

     63  H    Isotropic =    28.9710   Anisotropy =     8.6153

 The electronic state is 1-A.
 Alpha  occ. eigenvalues -- ********************-427.53609-414.86658-414.86617
 Alpha  occ. eigenvalues -- -414.86344-149.64837-141.92647-141.92644-141.92572
 Alpha  occ. eigenvalues -- -100.55353-100.55236-100.55201 -99.91636 -92.07497
 Alpha  occ. eigenvalues --  -92.07368 -92.07025 -79.03376 -79.03254 -79.03063
 Alpha  occ. eigenvalues --  -79.02998 -79.02955 -76.29708 -76.29536 -28.81232
 Alpha  occ. eigenvalues --  -25.15865 -25.15858 -25.15630 -20.83101 -17.70758
 Alpha  occ. eigenvalues --  -17.70758 -17.70604 -17.70601 -17.70555 -17.39945
 Alpha  occ. eigenvalues --  -17.39704 -17.38972 -11.58316 -11.57891 -11.57500
 Alpha  occ. eigenvalues --  -11.57377 -11.57294  -9.90622  -9.90594  -9.90593
 Alpha  occ. eigenvalues --   -9.90476  -9.90432  -9.90379  -9.90123  -9.89860
 Alpha  occ. eigenvalues --   -9.89134  -9.89114  -9.89094  -9.89044  -9.89019
 Alpha  occ. eigenvalues --   -9.88984  -9.88956  -9.88944  -9.88917  -9.88501
 Alpha  occ. eigenvalues --   -9.88403  -9.13215  -9.13089  -9.13055  -6.96970
 Alpha  occ. eigenvalues --   -6.96837  -6.96812  -6.96422  -6.96411  -6.96304
 Alpha  occ. eigenvalues --   -6.96286  -6.96265  -6.96248  -6.32709  -6.32584
 Alpha  occ. eigenvalues --   -4.55245  -4.55239  -4.55112  -4.55101  -4.54961
 Alpha  occ. eigenvalues --   -4.54847  -4.49951  -3.23400  -3.23374  -3.22970
 Alpha  occ. eigenvalues --   -3.13177  -3.13138  -3.12704  -3.12400  -3.12288
 Alpha  occ. eigenvalues --   -3.12198  -3.12164  -2.86055  -1.81056  -1.80887
 Alpha  occ. eigenvalues --   -1.78396  -1.02432  -1.02426  -1.02065  -1.02020
 Alpha  occ. eigenvalues --   -1.01925  -0.77711  -0.73399  -0.73240  -0.71858
 Alpha  occ. eigenvalues --   -0.70340  -0.70276  -0.69568  -0.69510  -0.69229
 Alpha  occ. eigenvalues --   -0.69019  -0.68910  -0.67143  -0.61380  -0.61098
 Alpha  occ. eigenvalues --   -0.60928  -0.57112  -0.56686  -0.56418  -0.55511
 Alpha  occ. eigenvalues --   -0.54242  -0.51887  -0.48972  -0.48173  -0.44339
 Alpha  occ. eigenvalues --   -0.42989  -0.42426  -0.42243  -0.41904  -0.41360
 Alpha  occ. eigenvalues --   -0.41097  -0.40753  -0.40309  -0.39624  -0.38500
 Alpha  occ. eigenvalues --   -0.38211  -0.37810  -0.37610  -0.37200  -0.37112
 Alpha  occ. eigenvalues --   -0.36701  -0.36613  -0.36435  -0.35201  -0.35024
 Alpha  occ. eigenvalues --   -0.34711  -0.34348  -0.33799  -0.33759  -0.33362
 Alpha  occ. eigenvalues --   -0.33069  -0.32657  -0.32240  -0.32050  -0.31873
 Alpha  occ. eigenvalues --   -0.31750  -0.31643  -0.31311  -0.30964  -0.30863
 Alpha  occ. eigenvalues --   -0.30138  -0.29595  -0.29358  -0.28902  -0.28577
 Alpha  occ. eigenvalues --   -0.28210  -0.27939  -0.27334  -0.27067  -0.26870
 Alpha  occ. eigenvalues --   -0.26084  -0.25668  -0.25596  -0.25338  -0.25064
 Alpha  occ. eigenvalues --   -0.23306  -0.22743  -0.22249  -0.20287  -0.19822
 Alpha virt. eigenvalues --   -0.07895  -0.06286  -0.04570  -0.04494  -0.03658
 Alpha virt. eigenvalues --   -0.02847  -0.02163  -0.01579  -0.01387  -0.00604
 Alpha virt. eigenvalues --   -0.00293  -0.00100   0.00135   0.00752   0.01369

 Mulliken charges:
               1
     1  Pt   0.299627
     2  P    0.053978
     3  P    0.224466
     4  C   -0.376409
     5  H    0.087825
     6  H    0.095268
     7  C   -0.176666
     8  H    0.108203
     9  H    0.137174
    10  H    0.112752
    11  C   -0.315783
    12  H    0.093934
    13  C   -0.289974
    14  H    0.108252
    15  H    0.085456
    16  C   -0.095316
    17  H    0.119206
    18  H    0.049814
    19  H    0.089722
    20  C   -0.392205
    21  H    0.110797
    22  H    0.079267
    23  C   -0.112091
    24  H    0.105149
    25  H    0.072871
    26  H    0.134204
    27  C   -0.411083
    28  H    0.082670
    29  H    0.077573
    30  C   -0.176867
    31  H    0.136342
    32  H    0.113428
    33  H    0.113258
    34  C   -0.438994
    35  H    0.103541
    36  H    0.090323
    37  C   -0.097111
    38  H    0.135316
    39  H    0.071515
    40  H    0.096357
    41  Sn   0.305806
    42  Cl  -0.287099
    43  Cl  -0.291746
    44  Cl  -0.228767
    45  C   -0.172000
    46  H    0.131502
    47  H    0.116845
    48  H    0.111472
    49  H    0.078951
    50  C    0.149803
    51  C    0.059367
    52  C    0.010523
    53  C   -0.177565
    54  H    0.047692
    55  C   -0.292018
    56  H    0.052821
    57  C   -0.168295
    58  H    0.083875
    59  H    0.089428
    60  C   -0.360843
    61  H    0.150893
    62  H    0.139940
    63  H    0.143627
 Sum of Mulliken charges =   0.00000

 Dipole moment (field-independent basis, Debye):
    X=            -14.0104    Y=              0.8066    Z=              0.1469  Tot=             14.0343
 Quadrupole moment (field-independent basis, Debye-Ang):
   XX=           -281.3480   YY=           -213.9862   ZZ=           -241.0194
   XY=              7.6332   XZ=             -0.1316   YZ=             -1.4582

 Normal termination of Gaussian 09 at Sun Aug 25 19:28:15 2019.
