 Gaussian 09, Revision D.01,
 Gaussian 09:  EM64L-G09RevD.01 24-Apr-2013

 ----------------------------------------------------------------------
 #PBEPBE/gen scf=(maxcycle=500,conver=3) NMR=GIAO Scrf=(solvent=Dichlor
 omethane)
 ----------------------------------------------------------------------

 -------------
 estrutura 108
 -------------
 Symbolic Z-matrix:
 Charge =  0 Multiplicity = 1

                         Standard orientation:
 ---------------------------------------------------------------------
 Center     Atomic      Atomic             Coordinates (Angstroms)
 Number     Number       Type             X           Y           Z
 ---------------------------------------------------------------------
      1         78           0       -0.071480    0.310884   -0.124328
      2         15           0        2.308757    0.639767   -0.042434
      3          6           0        3.496543   -0.631673    0.605978
      4          6           0        4.194845   -0.481629    1.815830
      5          6           0        3.745725   -1.768139   -0.184774
      6          6           0        5.117472   -1.450187    2.227372
      7          1           0        4.035511    0.395817    2.443135
      8          6           0        4.666991   -2.732663    0.229614
      9          1           0        3.221196   -1.906108   -1.132190
     10          6           0        5.356006   -2.577916    1.438027
     11          1           0        5.654968   -1.314675    3.169734
     12          1           0        4.844576   -3.610058   -0.397013
     13          1           0        6.079913   -3.331491    1.759547
     14          6           0        2.578930    2.084953    1.073735
     15          6           0        3.253820    3.249333    0.680273
     16          6           0        2.035895    2.017273    2.370257
     17          6           0        3.384415    4.322353    1.568118
     18          1           0        3.666012    3.334792   -0.325859
     19          6           0        2.181874    3.082998    3.259917
     20          1           0        1.483488    1.130432    2.687413
     21          6           0        2.854559    4.244073    2.859161
     22          1           0        3.904171    5.225256    1.243235
     23          1           0        1.756564    3.012703    4.264488
     24          1           0        2.959844    5.083484    3.550140
     25          6           0        3.111060    1.028046   -1.659770
     26          6           0        4.504999    1.223964   -1.721025
     27          6           0        2.359407    1.089488   -2.843101
     28          6           0        5.125780    1.506443   -2.940434
     29          1           0        5.116020    1.146997   -0.818521
     30          6           0        2.985292    1.365898   -4.064655
     31          1           0        1.281591    0.936714   -2.805087
     32          6           0        4.364302    1.585324   -4.113630
     33          1           0        6.207344    1.661256   -2.974253
     34          1           0        2.392315    1.409959   -4.980010
     35          1           0        4.851779    1.806203   -5.067323
     36         50           0       -0.007792   -2.170474    0.806676
     37         15           0       -2.457967    0.245172    0.008517
     38          6           0       -3.396364    1.708504   -0.624654
     39          6           0       -3.594522    1.839730   -2.010131
     40          6           0       -3.901091    2.695717    0.233803
     41          6           0       -4.291615    2.932941   -2.524988
     42          1           0       -3.204093    1.085477   -2.695907
     43          6           0       -4.603863    3.789589   -0.285292
     44          1           0       -3.756587    2.618829    1.312510
     45          6           0       -4.800283    3.912317   -1.665093
     46          1           0       -4.434301    3.018078   -3.604234
     47          1           0       -4.997315    4.547704    0.394188
     48          1           0       -5.350052    4.766032   -2.067608
     49          6           0       -3.248910   -1.106569   -0.981004
     50          6           0       -4.613014   -1.443226   -0.897825
     51          6           0       -2.462448   -1.732955   -1.966110
     52          6           0       -5.157673   -2.416268   -1.738161
     53          1           0       -5.281229   -0.944553   -0.194702
     54          6           0       -3.016937   -2.690389   -2.823766
     55          1           0       -1.409467   -1.470455   -2.072186
     56          6           0       -4.362920   -3.044058   -2.704402
     57          1           0       -6.216507   -2.671688   -1.646347
     58          1           0       -2.388137   -3.158756   -3.584439
     59          1           0       -4.796620   -3.797732   -3.366927
     60          6           0       -2.929659    0.181422    1.800366
     61          6           0       -4.146005   -0.319145    2.297882
     62          6           0       -2.018606    0.750410    2.711433
     63          6           0       -4.432178   -0.267573    3.664980
     64          1           0       -4.885656   -0.753467    1.629222
     65          6           0       -2.313306    0.814145    4.076524
     66          1           0       -1.070026    1.150744    2.345457
     67          6           0       -3.520783    0.300069    4.559001
     68          1           0       -5.381126   -0.670908    4.030053
     69          1           0       -1.591615    1.265216    4.763262
     70          1           0       -3.746769    0.341462    5.627445
     71         35           0       -0.171866    2.795556   -1.012827
     72         35           0        0.826352   -3.724891   -1.170109
     73          6           0        1.329324   -2.711535    2.448080
     74          1           0        2.014154   -3.501278    2.108020
     75          1           0        1.915953   -1.853053    2.798382
     76          1           0        0.699202   -3.097533    3.265481
     77          6           0       -1.825778   -3.313750    1.261070
     78          1           0       -2.186627   -3.796103    0.343528
     79          1           0       -1.543676   -4.081155    1.999153
     80          1           0       -2.616260   -2.674609    1.677852
 ---------------------------------------------------------------------

 SCF Done:  E(RPBE-PBE) =  -30378.1929799     A.U. after    8 cycles

      1  Pt   Isotropic =  3443.4791   Anisotropy =  1292.8757

      2  P    Isotropic =   282.6250   Anisotropy =    67.4965

      3  C    Isotropic =   153.3074   Anisotropy =   231.3075

      4  C    Isotropic =   129.6784   Anisotropy =   293.6226

      5  C    Isotropic =   127.4979   Anisotropy =   291.9186

      6  C    Isotropic =     9.1740   Anisotropy =    38.4382

      7  H    Isotropic =    23.2334   Anisotropy =    13.5396

      8  C    Isotropic =    39.9273   Anisotropy =    94.2393

      9  H    Isotropic =    21.5273   Anisotropy =    15.1926

     10  C    Isotropic =   -56.8649   Anisotropy =   118.1357

     11  H    Isotropic =    21.8565   Anisotropy =    10.2865

     12  H    Isotropic =    23.0691   Anisotropy =     9.4152

     13  H    Isotropic =    22.8437   Anisotropy =     5.5229

     14  C    Isotropic =   114.5516   Anisotropy =   232.7842

     15  C    Isotropic =   126.8397   Anisotropy =   302.8896

     16  C    Isotropic =    84.4680   Anisotropy =   257.9743

     17  C    Isotropic =     3.0232   Anisotropy =    65.8149

     18  H    Isotropic =    24.6054   Anisotropy =    11.1555

     19  C    Isotropic =    43.3393   Anisotropy =   134.4230

     20  H    Isotropic =    21.4872   Anisotropy =    14.9254

     21  C    Isotropic =   -46.8567   Anisotropy =   103.6282

     22  H    Isotropic =    23.7333   Anisotropy =     6.7203

     23  H    Isotropic =    22.0900   Anisotropy =     8.8668

     24  H    Isotropic =    23.0223   Anisotropy =     4.1629

     25  C    Isotropic =    88.3779   Anisotropy =    98.1679

     26  C    Isotropic =   138.3178   Anisotropy =   348.7745

     27  C    Isotropic =    70.9704   Anisotropy =   282.5477

     28  C    Isotropic =   -11.0236   Anisotropy =    68.7975

     29  H    Isotropic =    23.4892   Anisotropy =    11.9557

     30  C    Isotropic =    -9.7187   Anisotropy =    76.9700

     31  H    Isotropic =    21.6075   Anisotropy =    12.7606

     32  C    Isotropic =    -1.4787   Anisotropy =   160.8767

     33  H    Isotropic =    16.6822   Anisotropy =    15.3831

     34  H    Isotropic =    17.8064   Anisotropy =    13.9923

     35  H    Isotropic =    12.7832   Anisotropy =    18.8096

     36  Sn   Isotropic =  1878.3527   Anisotropy =   383.9381

     37  P    Isotropic =   265.0979   Anisotropy =    86.4345

     38  C    Isotropic =    65.6314   Anisotropy =   277.7205

     39  C    Isotropic =    73.8237   Anisotropy =   256.5009

     40  C    Isotropic =    63.9387   Anisotropy =   230.3949

     41  C    Isotropic =    59.4455   Anisotropy =   165.9688

     42  H    Isotropic =    24.5778   Anisotropy =    18.0554

     43  C    Isotropic =    49.2679   Anisotropy =   153.1852

     44  H    Isotropic =    25.3320   Anisotropy =    18.3903

     45  C    Isotropic =     1.9981   Anisotropy =    75.7641

     46  H    Isotropic =    26.2958   Anisotropy =     5.8826

     47  H    Isotropic =    26.1666   Anisotropy =     5.8676

     48  H    Isotropic =    27.9293   Anisotropy =     5.1761

     49  C    Isotropic =    40.3009   Anisotropy =   158.7808

     50  C    Isotropic =    59.0267   Anisotropy =   215.7142

     51  C    Isotropic =    29.1817   Anisotropy =   176.3711

     52  C    Isotropic =    19.9616   Anisotropy =   188.5547

     53  H    Isotropic =    22.9293   Anisotropy =     9.9273

     54  C    Isotropic =    -1.1368   Anisotropy =   117.2743

     55  H    Isotropic =    23.7437   Anisotropy =    12.3147

     56  C    Isotropic =    55.3700   Anisotropy =   387.8936

     57  H    Isotropic =    14.7988   Anisotropy =    17.0470

     58  H    Isotropic =    19.3856   Anisotropy =    13.1553

     59  H    Isotropic =    13.4212   Anisotropy =    19.2217

     60  C    Isotropic =    33.8581   Anisotropy =   161.6593

     61  C    Isotropic =    61.3230   Anisotropy =   234.0164

     62  C    Isotropic =    21.9970   Anisotropy =   153.2082

     63  C    Isotropic =     5.0467   Anisotropy =   127.8306

     64  H    Isotropic =    22.8818   Anisotropy =    10.3704

     65  C    Isotropic =     6.1625   Anisotropy =   154.8354

     66  H    Isotropic =    23.4434   Anisotropy =    14.9936

     67  C    Isotropic =    52.6372   Anisotropy =   392.4946

     68  H    Isotropic =    15.1805   Anisotropy =    16.1438

     69  H    Isotropic =    19.3876   Anisotropy =    13.5949

     70  H    Isotropic =    13.7939   Anisotropy =    19.0167

     71  Br   Isotropic =  2317.4254   Anisotropy =   418.6203

     72  Br   Isotropic =  2507.4874   Anisotropy =   441.4508

     73  C    Isotropic =   176.4271   Anisotropy =    32.7004

     74  H    Isotropic =    32.1341   Anisotropy =     8.6161

     75  H    Isotropic =    31.6817   Anisotropy =     9.1245

     76  H    Isotropic =    32.0972   Anisotropy =    14.2994

     77  C    Isotropic =   172.6703   Anisotropy =    28.6009

     78  H    Isotropic =    33.3526   Anisotropy =     7.3807

     79  H    Isotropic =    32.1347   Anisotropy =    15.5579

     80  H    Isotropic =    33.3788   Anisotropy =     8.2321

 The electronic state is 1-A.
 Alpha  occ. eigenvalues -- ********************-478.58481-478.55819-427.53549
 Alpha  occ. eigenvalues -- -414.86602-414.86534-414.86304-149.60808-141.88644
 Alpha  occ. eigenvalues -- -141.88518-141.88513 -99.91590 -92.07421 -92.07347
 Alpha  occ. eigenvalues --  -92.06985 -79.03309 -79.03204 -79.03012 -79.02962
 Alpha  occ. eigenvalues --  -79.02910 -76.31664 -76.31149 -61.50339 -61.47685
 Alpha  occ. eigenvalues --  -55.68751 -55.68560 -55.68551 -55.66079 -55.65922
 Alpha  occ. eigenvalues --  -55.65892 -28.77405 -25.12201 -25.11833 -25.11815
 Alpha  occ. eigenvalues --  -20.83022 -17.66966 -17.66892 -17.66879 -17.66635
 Alpha  occ. eigenvalues --  -17.66628 -17.39818 -17.39668 -17.38894 -11.58200
 Alpha  occ. eigenvalues --  -11.57824 -11.57424 -11.57317 -11.57206  -9.93153
 Alpha  occ. eigenvalues --   -9.92998  -9.92985  -9.92880  -9.92860  -9.92157
 Alpha  occ. eigenvalues --   -9.91553  -9.91525  -9.91426  -9.91343  -9.91305
 Alpha  occ. eigenvalues --   -9.91158  -9.91103  -9.91020  -9.90735  -9.90733
 Alpha  occ. eigenvalues --   -9.90677  -9.90660  -9.90557  -9.90544  -9.90524
 Alpha  occ. eigenvalues --   -9.90506  -9.90500  -9.90380  -9.90373  -9.90359
 Alpha  occ. eigenvalues --   -9.90344  -9.90294  -9.90288  -9.90287  -9.90264
 Alpha  occ. eigenvalues --   -9.90164  -9.90143  -9.90140  -9.89942  -9.89894
 Alpha  occ. eigenvalues --   -9.87229  -9.87153  -8.33222  -8.30615  -6.34677
 Alpha  occ. eigenvalues --   -6.34264  -6.23905  -6.23347  -6.23322  -6.21256
 Alpha  occ. eigenvalues --   -6.20787  -6.20707  -4.57217  -4.57215  -4.56910
 Alpha  occ. eigenvalues --   -4.56812  -4.56779  -4.56485  -4.46417  -3.20218
 Alpha  occ. eigenvalues --   -3.19507  -3.19491  -3.13064  -3.13045  -3.12613
 Alpha  occ. eigenvalues --   -3.12345  -3.12217  -3.12118  -3.12079  -2.85944
 Alpha  occ. eigenvalues --   -2.44888  -2.44747  -2.44729  -2.44317  -2.44316
 Alpha  occ. eigenvalues --   -2.42247  -2.42141  -2.42084  -2.41738  -2.41736
 Alpha  occ. eigenvalues --   -1.81131  -1.80480  -1.78373  -0.99222  -0.98883
 Alpha  occ. eigenvalues --   -0.98867  -0.98533  -0.98364  -0.79999  -0.79952
 Alpha  occ. eigenvalues --   -0.79222  -0.79095  -0.78902  -0.78817  -0.71862
 Alpha  occ. eigenvalues --   -0.71752  -0.69204  -0.69132  -0.69088  -0.68871
 Alpha  occ. eigenvalues --   -0.68772  -0.68648  -0.68468  -0.68421  -0.68347
 Alpha  occ. eigenvalues --   -0.68341  -0.66265  -0.63480  -0.61433  -0.61004
 Alpha  occ. eigenvalues --   -0.60775  -0.60122  -0.56295  -0.56208  -0.56013
 Alpha  occ. eigenvalues --   -0.55702  -0.55487  -0.55392  -0.54923  -0.54867
 Alpha  occ. eigenvalues --   -0.54798  -0.54702  -0.52167  -0.51845  -0.47882
 Alpha  occ. eigenvalues --   -0.47722  -0.47668  -0.47531  -0.45999  -0.45609
 Alpha  occ. eigenvalues --   -0.42412  -0.42193  -0.42043  -0.41928  -0.41626
 Alpha  occ. eigenvalues --   -0.41584  -0.41385  -0.40984  -0.40889  -0.40759
 Alpha  occ. eigenvalues --   -0.40482  -0.40242  -0.39256  -0.38892  -0.38580
 Alpha  occ. eigenvalues --   -0.38432  -0.38336  -0.38274  -0.38192  -0.38033
 Alpha  occ. eigenvalues --   -0.37953  -0.37381  -0.37201  -0.36621  -0.36141
 Alpha  occ. eigenvalues --   -0.35638  -0.35404  -0.34926  -0.34613  -0.34170
 Alpha  occ. eigenvalues --   -0.34093  -0.33922  -0.33642  -0.33432  -0.33113
 Alpha  occ. eigenvalues --   -0.32454  -0.31706  -0.31409  -0.31383  -0.31260
 Alpha  occ. eigenvalues --   -0.31095  -0.31014  -0.30881  -0.30477  -0.30086
 Alpha  occ. eigenvalues --   -0.29861  -0.29697  -0.28238  -0.27918  -0.27628
 Alpha  occ. eigenvalues --   -0.26303  -0.25950  -0.25460  -0.25191  -0.24985
 Alpha  occ. eigenvalues --   -0.24810  -0.24672  -0.24522  -0.24456  -0.24259
 Alpha  occ. eigenvalues --   -0.24063  -0.24026  -0.23867  -0.23714  -0.23450
 Alpha  occ. eigenvalues --   -0.22782  -0.22200  -0.21969  -0.20744  -0.20300
 Alpha  occ. eigenvalues --   -0.20258
 Alpha virt. eigenvalues --   -0.09950  -0.07804  -0.07361  -0.06707  -0.06626
 Alpha virt. eigenvalues --   -0.06549  -0.06149  -0.05945  -0.05825  -0.05579
 Alpha virt. eigenvalues --   -0.05408  -0.04899  -0.04774  -0.04098  -0.02293

 Mulliken charges:
               1
     1  Pt  -0.145201
     2  P    1.070025
     3  C   -0.994624
     4  C    0.271721
     5  C    0.521045
     6  C   -0.099113
     7  H    0.086217
     8  C   -0.118748
     9  H    0.119885
    10  C   -0.493965
    11  H    0.138916
    12  H    0.137141
    13  H    0.152418
    14  C   -0.783286
    15  C    0.208332
    16  C    0.609732
    17  C   -0.283166
    18  H    0.098192
    19  C   -0.025871
    20  H    0.063042
    21  C   -0.536039
    22  H    0.145768
    23  H    0.144515
    24  H    0.157010
    25  C   -0.686159
    26  C    0.361638
    27  C    0.200916
    28  C    0.073075
    29  H    0.105205
    30  C   -0.261979
    31  H    0.121252
    32  C   -0.617033
    33  H    0.145052
    34  H    0.143576
    35  H    0.152277
    36  Sn  -0.060230
    37  P    1.546416
    38  C   -0.963443
    39  C    0.419705
    40  C    0.301513
    41  C   -0.072475
    42  H    0.098648
    43  C   -0.178175
    44  H    0.112174
    45  C   -0.539425
    46  H    0.149364
    47  H    0.145847
    48  H    0.153153
    49  C   -0.860179
    50  C    0.265869
    51  C    0.346159
    52  C   -0.069832
    53  H    0.093151
    54  C   -0.007691
    55  H    0.062092
    56  C   -0.527488
    57  H    0.143656
    58  H    0.137228
    59  H    0.148792
    60  C   -0.484638
    61  C    0.054503
    62  C    0.352484
    63  C   -0.117432
    64  H    0.071923
    65  C   -0.104883
    66  H    0.061429
    67  C   -0.533775
    68  H    0.145195
    69  H    0.139818
    70  H    0.147286
    71  Br  -0.456391
    72  Br  -0.324825
    73  C   -0.314489
    74  H    0.097103
    75  H    0.089932
    76  H    0.120997
    77  C   -0.260840
    78  H    0.102856
    79  H    0.108906
    80  H    0.078246
 Sum of Mulliken charges =   0.00000

 Dipole moment (field-independent basis, Debye):
    X=             -1.8681    Y=              0.2393    Z=              5.0854  Tot=              5.4229
 Quadrupole moment (field-independent basis, Debye-Ang):
   XX=           -283.0940   YY=           -357.6652   ZZ=           -298.8582
   XY=             11.1268   XZ=             -1.8034   YZ=              7.3010

 Normal termination of Gaussian 09 at Fri Nov 29 18:59:28 2019.
