 Gaussian 09, Revision D.01,
 Gaussian 09:  EM64L-G09RevD.01 24-Apr-2013

 ----------------------------------------------------------------------
 #PBEPBE/gen scf=(maxcycle=500,conver=4) NMR=GIAO Scrf=(solvent=Dichlor
 omethane)
 ----------------------------------------------------------------------

 ------------
 estrutura 90
 ------------
 Symbolic Z-matrix:
 Charge =  0 Multiplicity = 1

                         Standard orientation:
 ---------------------------------------------------------------------
 Center     Atomic      Atomic             Coordinates (Angstroms)
 Number     Number       Type             X           Y           Z
 ---------------------------------------------------------------------
      1         78           0       -0.510308   -0.293970   -0.165695
      2          6           0       -0.081757   -2.311132   -0.477234
      3          6           0        0.046725   -3.264624    0.552368
      4          6           0        0.054073   -2.786876   -1.798963
      5          6           0        0.273070   -4.619763    0.281525
      6          1           0       -0.022251   -2.955286    1.596971
      7          6           0        0.290355   -4.138981   -2.078180
      8          1           0       -0.025734   -2.090805   -2.638453
      9          6           0        0.397911   -5.066917   -1.037469
     10          1           0        0.365591   -5.327728    1.110697
     11          1           0        0.391109   -4.466140   -3.117520
     12          1           0        0.582404   -6.123130   -1.251483
     13         15           0       -2.861188   -1.053411    0.176452
     14         15           0       -0.847009    2.120753    0.025502
     15          6           0       -3.059821   -1.706152    1.896251
     16          6           0       -4.278839   -2.265573    2.326128
     17          6           0       -2.012283   -1.574819    2.820473
     18          6           0       -4.429290   -2.711298    3.640749
     19          1           0       -5.121746   -2.345093    1.636120
     20          6           0       -2.166629   -2.015543    4.139873
     21          1           0       -1.075048   -1.110943    2.506328
     22          6           0       -3.371680   -2.590470    4.550347
     23          1           0       -5.379275   -3.148117    3.958706
     24          1           0       -1.341121   -1.904234    4.847149
     25          1           0       -3.492470   -2.936203    5.579991
     26          6           0       -3.278795   -2.443064   -0.971641
     27          6           0       -3.241636   -2.187319   -2.355516
     28          6           0       -3.593843   -3.740069   -0.538351
     29          6           0       -3.554946   -3.187814   -3.278023
     30          1           0       -2.957117   -1.199584   -2.726048
     31          6           0       -3.889574   -4.747063   -1.464583
     32          1           0       -3.599080   -3.982115    0.524424
     33          6           0       -3.882654   -4.473264   -2.834177
     34          1           0       -3.529591   -2.964207   -4.347409
     35          1           0       -4.126705   -5.752105   -1.106651
     36          1           0       -4.120167   -5.260111   -3.554501
     37          6           0       -4.380606    0.024129    0.083075
     38          6           0       -4.604878    0.935654    1.130649
     39          6           0       -5.314008   -0.033963   -0.964735
     40          6           0       -5.725795    1.768714    1.126968
     41          1           0       -3.909469    0.988569    1.969577
     42          6           0       -6.437095    0.800846   -0.966718
     43          1           0       -5.185700   -0.741313   -1.783712
     44          6           0       -6.647102    1.706151    0.075930
     45          1           0       -5.879902    2.466405    1.954035
     46          1           0       -7.153793    0.734178   -1.789584
     47          1           0       -7.526661    2.354763    0.074303
     48          6           0        0.562863    3.293375   -0.282836
     49          6           0        0.970520    4.265843    0.641945
     50          6           0        1.198538    3.238255   -1.534612
     51          6           0        1.998548    5.160025    0.321962
     52          1           0        0.493954    4.332591    1.620772
     53          6           0        2.225144    4.129316   -1.852111
     54          1           0        0.892641    2.494950   -2.273227
     55          6           0        2.629882    5.093800   -0.922161
     56          1           0        2.306611    5.909999    1.054994
     57          1           0        2.711796    4.066615   -2.828537
     58          1           0        3.434767    5.791177   -1.168505
     59          6           0       -1.401734    2.601913    1.722567
     60          6           0       -2.504281    3.426256    1.996930
     61          6           0       -0.652890    2.090442    2.800023
     62          6           0       -2.848073    3.735467    3.317925
     63          1           0       -3.114793    3.822549    1.185541
     64          6           0       -0.993544    2.407369    4.117472
     65          1           0        0.212305    1.450450    2.607785
     66          6           0       -2.094517    3.230086    4.380614
     67          1           0       -3.712369    4.375547    3.512863
     68          1           0       -0.397246    2.006995    4.941072
     69          1           0       -2.364459    3.474350    5.411060
     70          6           0       -2.046285    2.844995   -1.189050
     71          6           0       -2.308919    4.228465   -1.227140
     72          6           0       -2.611494    2.025786   -2.176553
     73          6           0       -3.146824    4.765786   -2.206382
     74          1           0       -1.840993    4.897477   -0.502167
     75          6           0       -3.438972    2.565927   -3.167945
     76          1           0       -2.385187    0.958401   -2.176169
     77          6           0       -3.714967    3.934816   -3.179586
     78          1           0       -3.345949    5.840411   -2.218738
     79          1           0       -3.866698    1.912620   -3.932380
     80          1           0       -4.362487    4.358281   -3.951652
     81         50           0        2.149943   -0.308463   -0.285244
     82          6           0        2.968673    0.036784   -2.301591
     83          6           0        4.351451    0.059556   -2.559240
     84          6           0        2.093507    0.222695   -3.386674
     85          6           0        4.842834    0.273916   -3.853668
     86          1           0        5.065475   -0.091835   -1.745287
     87          6           0        2.577875    0.433114   -4.684270
     88          1           0        1.010868    0.205454   -3.222538
     89          6           0        3.956674    0.462893   -4.919583
     90          1           0        5.922583    0.291492   -4.029948
     91          1           0        1.877256    0.574624   -5.512205
     92          1           0        4.339149    0.629497   -5.930367
     93          6           0        3.287802   -2.037555    0.443111
     94          6           0        3.980496   -2.883507   -0.439714
     95          6           0        3.322580   -2.341394    1.815177
     96          6           0        4.684063   -3.999967    0.032856
     97          1           0        3.977170   -2.680123   -1.514484
     98          6           0        4.021973   -3.455318    2.292529
     99          1           0        2.800555   -1.699398    2.531273
    100          6           0        4.706068   -4.288757    1.400404
    101          1           0        5.216406   -4.645449   -0.672046
    102          1           0        4.035759   -3.672513    3.364791
    103          1           0        5.254458   -5.159291    1.770611
    104         16           0        3.067304    1.457773    1.321057
    105          6           0        4.797368    1.094593    1.609153
    106          6           0        5.209488    0.539110    2.834274
    107          6           0        5.780623    1.446855    0.665246
    108          6           0        6.566399    0.333285    3.103147
    109          1           0        4.456922    0.271962    3.578872
    110          6           0        7.135860    1.230059    0.933367
    111          1           0        5.475831    1.901212   -0.279500
    112          6           0        7.535512    0.672768    2.153127
    113          1           0        6.866454   -0.098597    4.061817
    114          1           0        7.884438    1.507056    0.185698
    115          1           0        8.595633    0.507948    2.363112
 ---------------------------------------------------------------------

 SCF Done:  E(RPBE-PBE) =  -26486.3503015     A.U. after   87 cycles

      1  Pt   Isotropic =  3022.6185   Anisotropy =  1896.0247

      2  C    Isotropic =     9.1817   Anisotropy =   199.4232

      3  C    Isotropic =    35.8490   Anisotropy =   177.3473

      4  C    Isotropic =    32.9112   Anisotropy =   178.7312

      5  C    Isotropic =    50.6798   Anisotropy =   178.0155

      6  H    Isotropic =    24.1357   Anisotropy =    10.5625

      7  C    Isotropic =    49.6077   Anisotropy =   177.3492

      8  H    Isotropic =    24.1229   Anisotropy =    12.4476

      9  C    Isotropic =    55.6926   Anisotropy =   188.9572

     10  H    Isotropic =    25.1498   Anisotropy =     5.1456

     11  H    Isotropic =    24.9222   Anisotropy =     4.8125

     12  H    Isotropic =    25.1159   Anisotropy =     2.3081

     13  P    Isotropic =   278.9827   Anisotropy =    53.1080

     14  P    Isotropic =   267.9221   Anisotropy =    93.1770

     15  C    Isotropic =    41.6226   Anisotropy =   165.8880

     16  C    Isotropic =    39.7030   Anisotropy =   184.5205

     17  C    Isotropic =    36.6500   Anisotropy =   176.5634

     18  C    Isotropic =    49.6547   Anisotropy =   183.2543

     19  H    Isotropic =    24.3170   Anisotropy =    12.8142

     20  C    Isotropic =    50.5968   Anisotropy =   178.3143

     21  H    Isotropic =    22.2630   Anisotropy =    14.7130

     22  C    Isotropic =    47.9326   Anisotropy =   181.5201

     23  H    Isotropic =    23.8720   Anisotropy =     6.0355

     24  H    Isotropic =    23.5315   Anisotropy =     8.9696

     25  H    Isotropic =    23.7055   Anisotropy =     4.5838

     26  C    Isotropic =    42.2596   Anisotropy =   178.9344

     27  C    Isotropic =    46.5606   Anisotropy =   182.5387

     28  C    Isotropic =    48.1505   Anisotropy =   187.7997

     29  C    Isotropic =    52.7842   Anisotropy =   180.9048

     30  H    Isotropic =    23.1195   Anisotropy =    11.9647

     31  C    Isotropic =    48.6324   Anisotropy =   181.1497

     32  H    Isotropic =    24.6324   Anisotropy =    11.5393

     33  C    Isotropic =    52.6740   Anisotropy =   187.4882

     34  H    Isotropic =    23.5668   Anisotropy =     7.1955

     35  H    Isotropic =    24.2253   Anisotropy =     6.5759

     36  H    Isotropic =    23.9046   Anisotropy =     3.2312

     37  C    Isotropic =    36.0752   Anisotropy =   185.8204

     38  C    Isotropic =    45.6475   Anisotropy =   190.3383

     39  C    Isotropic =    48.3330   Anisotropy =   187.4890

     40  C    Isotropic =    52.5504   Anisotropy =   179.9030

     41  H    Isotropic =    25.5927   Anisotropy =     8.8447

     42  C    Isotropic =    52.5220   Anisotropy =   180.9489

     43  H    Isotropic =    23.8351   Anisotropy =    12.9862

     44  C    Isotropic =    49.7833   Anisotropy =   177.8742

     45  H    Isotropic =    24.5219   Anisotropy =     7.6323

     46  H    Isotropic =    24.3313   Anisotropy =     6.2946

     47  H    Isotropic =    24.4958   Anisotropy =     2.9353

     48  C    Isotropic =    31.0472   Anisotropy =   188.2545

     49  C    Isotropic =    49.2812   Anisotropy =   183.7823

     50  C    Isotropic =    45.1415   Anisotropy =   188.9626

     51  C    Isotropic =    49.9149   Anisotropy =   178.3207

     52  H    Isotropic =    24.4232   Anisotropy =    12.6718

     53  C    Isotropic =    48.5873   Anisotropy =   180.3813

     54  H    Isotropic =    23.7102   Anisotropy =     8.9763

     55  C    Isotropic =    47.7702   Anisotropy =   179.9865

     56  H    Isotropic =    24.1431   Anisotropy =     5.9315

     57  H    Isotropic =    24.6949   Anisotropy =     7.4024

     58  H    Isotropic =    24.1184   Anisotropy =     3.6067

     59  C    Isotropic =    43.2456   Anisotropy =   172.3072

     60  C    Isotropic =    44.6458   Anisotropy =   188.6307

     61  C    Isotropic =    42.7006   Anisotropy =   185.0634

     62  C    Isotropic =    48.2105   Anisotropy =   178.9181

     63  H    Isotropic =    23.7094   Anisotropy =    10.0633

     64  C    Isotropic =    48.4104   Anisotropy =   180.8580

     65  H    Isotropic =    22.3833   Anisotropy =    11.4203

     66  C    Isotropic =    48.3856   Anisotropy =   189.1756

     67  H    Isotropic =    23.4591   Anisotropy =     5.8095

     68  H    Isotropic =    23.1995   Anisotropy =     7.7986

     69  H    Isotropic =    23.4428   Anisotropy =     4.1110

     70  C    Isotropic =    44.4134   Anisotropy =   182.0026

     71  C    Isotropic =    43.2973   Anisotropy =   190.5744

     72  C    Isotropic =    42.3914   Anisotropy =   178.1503

     73  C    Isotropic =    46.9252   Anisotropy =   174.8771

     74  H    Isotropic =    24.1699   Anisotropy =    12.2100

     75  C    Isotropic =    50.2183   Anisotropy =   184.0973

     76  H    Isotropic =    22.4882   Anisotropy =    13.1756

     77  C    Isotropic =    47.6532   Anisotropy =   189.1864

     78  H    Isotropic =    23.8950   Anisotropy =     6.0809

     79  H    Isotropic =    23.5387   Anisotropy =     8.3367

     80  H    Isotropic =    23.7409   Anisotropy =     4.2476

     81  Sn   Isotropic =  2162.3585   Anisotropy =   402.3303

     82  C    Isotropic =    31.7327   Anisotropy =   213.5681

     83  C    Isotropic =    39.8828   Anisotropy =   180.9962

     84  C    Isotropic =    39.2150   Anisotropy =   174.0990

     85  C    Isotropic =    50.4113   Anisotropy =   173.9759

     86  H    Isotropic =    23.8549   Anisotropy =    11.9431

     87  C    Isotropic =    49.6353   Anisotropy =   173.3212

     88  H    Isotropic =    22.7774   Anisotropy =    13.9780

     89  C    Isotropic =    48.3537   Anisotropy =   178.1389

     90  H    Isotropic =    23.9366   Anisotropy =     5.9059

     91  H    Isotropic =    23.6103   Anisotropy =     8.6196

     92  H    Isotropic =    23.8019   Anisotropy =     4.1600

     93  C    Isotropic =    31.9400   Anisotropy =   209.2872

     94  C    Isotropic =    43.4863   Anisotropy =   185.2201

     95  C    Isotropic =    42.6785   Anisotropy =   185.5179

     96  C    Isotropic =    51.6704   Anisotropy =   179.5951

     97  H    Isotropic =    24.9082   Anisotropy =    11.7067

     98  C    Isotropic =    53.8960   Anisotropy =   178.3114

     99  H    Isotropic =    23.2911   Anisotropy =    12.9793

    100  C    Isotropic =    54.4981   Anisotropy =   180.9389

    101  H    Isotropic =    24.7525   Anisotropy =     6.1291

    102  H    Isotropic =    24.1270   Anisotropy =     6.7590

    103  H    Isotropic =    24.5726   Anisotropy =     2.6356

    104  S    Isotropic =   459.6555   Anisotropy =   347.5825

    105  C    Isotropic =    30.5840   Anisotropy =   159.4303

    106  C    Isotropic =    41.2150   Anisotropy =   154.3981

    107  C    Isotropic =    40.8209   Anisotropy =   154.6158

    108  C    Isotropic =    51.0842   Anisotropy =   179.5407

    109  H    Isotropic =    23.7569   Anisotropy =    11.7105

    110  C    Isotropic =    52.3952   Anisotropy =   172.2763

    111  H    Isotropic =    24.3346   Anisotropy =    11.8961

    112  C    Isotropic =    57.3091   Anisotropy =   189.7796

    113  H    Isotropic =    24.1864   Anisotropy =     6.6023

    114  H    Isotropic =    24.4870   Anisotropy =     6.7607

    115  H    Isotropic =    24.4323   Anisotropy =     2.9252

 The electronic state is 1-A.
 Alpha  occ. eigenvalues -- ********************-427.51908-414.84969-414.84889
 Alpha  occ. eigenvalues -- -414.84682-149.59962-141.87787-141.87711-141.87689
 Alpha  occ. eigenvalues --  -99.89952 -92.05802 -92.05646 -92.05392 -87.96358
 Alpha  occ. eigenvalues --  -79.01650 -79.01539 -79.01396 -79.01321 -79.01291
 Alpha  occ. eigenvalues --  -76.30513 -76.30368 -28.76374 -25.11104 -25.10877
 Alpha  occ. eigenvalues --  -25.10806 -20.81430 -17.65918 -17.65884 -17.65838
 Alpha  occ. eigenvalues --  -17.65687 -17.65676 -17.38259 -17.37951 -17.37402
 Alpha  occ. eigenvalues --  -11.56560 -11.56176 -11.55872 -11.55737 -11.55675
 Alpha  occ. eigenvalues --   -9.92301  -9.92129  -9.92081  -9.92061  -9.92023
 Alpha  occ. eigenvalues --   -9.91911  -9.91425  -9.90959  -9.90902  -9.90892
 Alpha  occ. eigenvalues --   -9.90845  -9.90811  -9.90742  -9.90731  -9.90679
 Alpha  occ. eigenvalues --   -9.90629  -9.90546  -9.90526  -9.90513  -9.90512
 Alpha  occ. eigenvalues --   -9.90507  -9.90493  -9.90459  -9.90438  -9.90398
 Alpha  occ. eigenvalues --   -9.90391  -9.90339  -9.90261  -9.90237  -9.90223
 Alpha  occ. eigenvalues --   -9.90217  -9.90170  -9.90073  -9.90026  -9.89878
 Alpha  occ. eigenvalues --   -9.89842  -9.89802  -9.89501  -9.89439  -9.89417
 Alpha  occ. eigenvalues --   -9.89401  -9.89395  -9.89364  -9.89295  -9.89249
 Alpha  occ. eigenvalues --   -9.89233  -9.89208  -9.89073  -9.89036  -9.88928
 Alpha  occ. eigenvalues --   -9.88835  -9.88824  -9.88742  -9.88719  -9.88513
 Alpha  occ. eigenvalues --   -9.88436  -9.88417  -9.88316  -9.88199  -9.87971
 Alpha  occ. eigenvalues --   -7.63356  -6.33422  -6.33292  -5.66858  -5.66364
 Alpha  occ. eigenvalues --   -5.65839  -4.55999  -4.55985  -4.55879  -4.55850
 Alpha  occ. eigenvalues --   -4.55608  -4.55469  -4.45139  -3.18768  -3.18348
 Alpha  occ. eigenvalues --   -3.18229  -3.11430  -3.11371  -3.11034  -3.10752
 Alpha  occ. eigenvalues --   -3.10671  -3.10567  -3.10545  -2.84405  -1.79462
 Alpha  occ. eigenvalues --   -1.78929  -1.77031  -0.97759  -0.97552  -0.97487
 Alpha  occ. eigenvalues --   -0.97275  -0.97166  -0.79690  -0.79575  -0.78936
 Alpha  occ. eigenvalues --   -0.78855  -0.78630  -0.78356  -0.78024  -0.77356
 Alpha  occ. eigenvalues --   -0.76792  -0.76329  -0.71470  -0.71347  -0.69526
 Alpha  occ. eigenvalues --   -0.68935  -0.68846  -0.68785  -0.68755  -0.68526
 Alpha  occ. eigenvalues --   -0.68398  -0.68125  -0.68101  -0.67996  -0.67866
 Alpha  occ. eigenvalues --   -0.67416  -0.67250  -0.66868  -0.66658  -0.66237
 Alpha  occ. eigenvalues --   -0.66139  -0.65830  -0.60763  -0.60437  -0.60276
 Alpha  occ. eigenvalues --   -0.56058  -0.55890  -0.55693  -0.55655  -0.55183
 Alpha  occ. eigenvalues --   -0.55055  -0.54640  -0.54560  -0.54520  -0.54359
 Alpha  occ. eigenvalues --   -0.54314  -0.53943  -0.53453  -0.53261  -0.52962
 Alpha  occ. eigenvalues --   -0.52618  -0.52357  -0.52006  -0.51683  -0.51442
 Alpha  occ. eigenvalues --   -0.47615  -0.47453  -0.47362  -0.47230  -0.46551
 Alpha  occ. eigenvalues --   -0.45629  -0.45584  -0.45521  -0.45366  -0.45053
 Alpha  occ. eigenvalues --   -0.41993  -0.41906  -0.41820  -0.41713  -0.41304
 Alpha  occ. eigenvalues --   -0.41218  -0.40899  -0.40873  -0.40635  -0.40494
 Alpha  occ. eigenvalues --   -0.40417  -0.40260  -0.40156  -0.40053  -0.39797
 Alpha  occ. eigenvalues --   -0.39686  -0.39180  -0.39138  -0.38963  -0.38873
 Alpha  occ. eigenvalues --   -0.38644  -0.38361  -0.38320  -0.38191  -0.38131
 Alpha  occ. eigenvalues --   -0.38018  -0.37759  -0.37703  -0.37565  -0.37143
 Alpha  occ. eigenvalues --   -0.37031  -0.36827  -0.36759  -0.36393  -0.35885
 Alpha  occ. eigenvalues --   -0.35572  -0.35349  -0.35115  -0.34549  -0.34244
 Alpha  occ. eigenvalues --   -0.34145  -0.34064  -0.33938  -0.33579  -0.33558
 Alpha  occ. eigenvalues --   -0.33230  -0.33075  -0.32856  -0.32694  -0.31964
 Alpha  occ. eigenvalues --   -0.31691  -0.31477  -0.31236  -0.31192  -0.31014
 Alpha  occ. eigenvalues --   -0.30830  -0.30640  -0.30510  -0.30116  -0.29988
 Alpha  occ. eigenvalues --   -0.29905  -0.29705  -0.29545  -0.29509  -0.29439
 Alpha  occ. eigenvalues --   -0.29038  -0.28938  -0.28702  -0.27484  -0.26149
 Alpha  occ. eigenvalues --   -0.25656  -0.25296  -0.25073  -0.24901  -0.24598
 Alpha  occ. eigenvalues --   -0.24525  -0.24337  -0.24279  -0.23996  -0.23974
 Alpha  occ. eigenvalues --   -0.23807  -0.23593  -0.23345  -0.23152  -0.23071
 Alpha  occ. eigenvalues --   -0.22995  -0.22838  -0.22724  -0.22371  -0.22302
 Alpha  occ. eigenvalues --   -0.21538  -0.21447  -0.20731  -0.20569  -0.19763
 Alpha  occ. eigenvalues --   -0.19435  -0.17876
 Alpha virt. eigenvalues --   -0.07484  -0.07456  -0.07210  -0.06538  -0.06350
 Alpha virt. eigenvalues --   -0.06044  -0.05829  -0.05634  -0.05559  -0.05343
 Alpha virt. eigenvalues --   -0.05284  -0.04908  -0.04690  -0.04522  -0.04474

 Mulliken charges:
               1
     1  Pt   0.515989
     2  C    0.182881
     3  C   -0.128995
     4  C   -0.027149
     5  C   -0.010450
     6  H    0.017077
     7  C    0.109970
     8  H    0.018325
     9  C   -0.616664
    10  H    0.113474
    11  H    0.108940
    12  H    0.124193
    13  P    1.301864
    14  P    0.920222
    15  C   -1.242231
    16  C    0.467015
    17  C    0.521104
    18  C    0.025531
    19  H    0.087320
    20  C   -0.166466
    21  H    0.050050
    22  C   -0.697194
    23  H    0.141002
    24  H    0.134028
    25  H    0.151841
    26  C   -0.916664
    27  C    0.694470
    28  C    0.141225
    29  C    0.008230
    30  H    0.039133
    31  C   -0.176616
    32  H    0.090148
    33  C   -0.492019
    34  H    0.126283
    35  H    0.131295
    36  H    0.145028
    37  C   -1.205639
    38  C    0.520563
    39  C    0.325765
    40  C   -0.001278
    41  H    0.055958
    42  C   -0.189258
    43  H    0.070121
    44  C   -0.465756
    45  H    0.126171
    46  H    0.132959
    47  H    0.145857
    48  C   -1.261316
    49  C    0.395478
    50  C    0.627010
    51  C   -0.134379
    52  H    0.071970
    53  C   -0.066745
    54  H    0.063178
    55  C   -0.536050
    56  H    0.129862
    57  H    0.132744
    58  H    0.143679
    59  C   -0.973649
    60  C    0.410192
    61  C    0.609545
    62  C   -0.190009
    63  H    0.058142
    64  C   -0.043683
    65  H    0.048135
    66  C   -0.600934
    67  H    0.132116
    68  H    0.135583
    69  H    0.145843
    70  C   -1.016455
    71  C    0.332398
    72  C    0.437556
    73  C    0.108885
    74  H    0.086985
    75  C   -0.284514
    76  H    0.058140
    77  C   -0.579599
    78  H    0.142923
    79  H    0.121702
    80  H    0.147074
    81  Sn   0.210485
    82  C   -0.225639
    83  C    0.228242
    84  C    0.271203
    85  C   -0.210723
    86  H    0.108397
    87  C   -0.103745
    88  H    0.069385
    89  C   -0.717539
    90  H    0.144569
    91  H    0.139457
    92  H    0.148029
    93  C   -0.043705
    94  C   -0.078254
    95  C    0.231643
    96  C   -0.104785
    97  H    0.097039
    98  C   -0.096157
    99  H    0.080972
   100  C   -0.635887
   101  H    0.140405
   102  H    0.129517
   103  H    0.146030
   104  S   -0.104547
   105  C   -0.295534
   106  C    0.095219
   107  C    0.249796
   108  C   -0.244412
   109  H    0.124823
   110  C   -0.201814
   111  H    0.127937
   112  C   -0.391921
   113  H    0.143136
   114  H    0.143945
   115  H    0.164974
 Sum of Mulliken charges =   0.00000

 Dipole moment (field-independent basis, Debye):
    X=            -10.2941    Y=              2.0732    Z=             -0.1507  Tot=             10.5019
 Quadrupole moment (field-independent basis, Debye-Ang):
   XX=           -417.7770   YY=           -422.6639   ZZ=           -396.6688
   XY=             -6.0249   XZ=             -4.0440   YZ=             -5.8261

 Normal termination of Gaussian 09 at Tue Dec 10 09:38:36 2019.
