 Gaussian 09, Revision D.01,
 Gaussian 09:  EM64L-G09RevD.01 24-Apr-2013

 ----------------------------------------------------------------------
 #PBEPBE/gen scf=(maxcycle=500,conver=4) NMR=GIAO Scrf=(solvent=Dichlor
 omethane)
 ----------------------------------------------------------------------

 ------------
 estrutura 38
 ------------
 Symbolic Z-matrix:
 Charge = -2 Multiplicity = 1

                         Standard orientation:
 ---------------------------------------------------------------------
 Center     Atomic      Atomic             Coordinates (Angstroms)
 Number     Number       Type             X           Y           Z
 ---------------------------------------------------------------------
      1         78           0        1.228199    0.010007   -0.003488
      2         17           0        1.025545   -2.383504    0.043276
      3         17           0        3.653561   -0.132024   -0.062384
      4         17           0        1.319122    2.408363    0.051653
      5         50           0       -1.341597    0.031173   -0.007715
      6         17           0       -2.500817   -0.677438    2.024491
      7         17           0       -2.535548   -1.403068   -1.587133
      8         17           0       -2.651254    2.050071   -0.431210
 ---------------------------------------------------------------------

 SCF Done:  E(RPBE-PBE) =  -25851.4030298     A.U. after    9 cycles

      1  Pt   Isotropic =  1259.1134   Anisotropy =  4935.6004

      2  Cl   Isotropic =  1134.6679   Anisotropy =   526.3520

      3  Cl   Isotropic =   910.2300   Anisotropy =   268.9587

      4  Cl   Isotropic =  1125.3162   Anisotropy =   425.0155

      5  Sn   Isotropic =  2169.1966   Anisotropy =   982.7235

      6  Cl   Isotropic =   759.8323   Anisotropy =   363.5328

      7  Cl   Isotropic =   765.8471   Anisotropy =   344.1589

      8  Cl   Isotropic =   779.2706   Anisotropy =   316.4457

 The electronic state is 1-A.
 Alpha  occ. eigenvalues -- ********************-427.49385-414.82412-414.82399
 Alpha  occ. eigenvalues -- -414.82065-149.63353-141.91171-141.91165-141.91090
 Alpha  occ. eigenvalues -- -100.53609-100.53556-100.53554-100.50353-100.50210
 Alpha  occ. eigenvalues -- -100.49209 -99.87442 -92.03323 -92.03241 -92.02725
 Alpha  occ. eigenvalues --  -78.99257 -78.99083 -78.98825 -78.98753 -78.98696
 Alpha  occ. eigenvalues --  -28.79739 -25.14387 -25.14365 -25.14123 -20.78922
 Alpha  occ. eigenvalues --  -17.69275 -17.69275 -17.69111 -17.69097 -17.69054
 Alpha  occ. eigenvalues --  -17.35812 -17.35664 -17.34591 -11.54369 -11.53746
 Alpha  occ. eigenvalues --  -11.53267 -11.53078 -11.53000  -9.11445  -9.11389
 Alpha  occ. eigenvalues --   -9.11384  -9.08149  -9.08084  -9.06986  -6.95228
 Alpha  occ. eigenvalues --   -6.95175  -6.95173  -6.94644  -6.94629  -6.94591
 Alpha  occ. eigenvalues --   -6.94585  -6.94566  -6.94563  -6.91966  -6.91889
 Alpha  occ. eigenvalues --   -6.91354  -6.91302  -6.91270  -6.91246  -6.90720
 Alpha  occ. eigenvalues --   -6.90240  -6.90183  -4.48463  -3.21917  -3.21886
 Alpha  occ. eigenvalues --   -3.21488  -3.09155  -3.09152  -3.08566  -3.08130
 Alpha  occ. eigenvalues --   -3.08028  -3.07875  -3.07864  -2.81925  -1.77057
 Alpha  occ. eigenvalues --   -1.76890  -1.74011  -1.00938  -1.00933  -1.00571
 Alpha  occ. eigenvalues --   -1.00541  -1.00483  -0.70176  -0.68550  -0.68481
 Alpha  occ. eigenvalues --   -0.65886  -0.65084  -0.64223  -0.39862  -0.31468
 Alpha  occ. eigenvalues --   -0.30586  -0.30264  -0.29740  -0.27561  -0.26668
 Alpha  occ. eigenvalues --   -0.25826  -0.25650  -0.25309  -0.24472  -0.24337
 Alpha  occ. eigenvalues --   -0.24086  -0.24029  -0.23826  -0.23113  -0.22198
 Alpha  occ. eigenvalues --   -0.19465  -0.19291  -0.18676  -0.18054  -0.17971
 Alpha  occ. eigenvalues --   -0.17130
 Alpha virt. eigenvalues --   -0.09658  -0.02327  -0.01019  -0.00609   0.00599
 Alpha virt. eigenvalues --    0.02107   0.02424   0.02605   0.04514   0.04718
 Alpha virt. eigenvalues --    0.04990   0.05803   0.06331   0.07441   0.07579

 Mulliken charges:
               1
     1  Pt   0.282046
     2  Cl  -0.554169
     3  Cl  -0.612780
     4  Cl  -0.566273
     5  Sn   0.311608
     6  Cl  -0.295438
     7  Cl  -0.299015
     8  Cl  -0.265981
 Sum of Mulliken charges =  -2.00000

 Dipole moment (field-independent basis, Debye):
    X=             -5.0293    Y=              0.1087    Z=             -0.0723  Tot=              5.0310
 Quadrupole moment (field-independent basis, Debye-Ang):
   XX=           -210.4167   YY=           -176.3041   ZZ=           -148.8216
   XY=             -0.5190   XZ=              0.1617   YZ=             -0.0389

 Normal termination of Gaussian 09 at Thu May 30 12:53:33 2019.
