 Gaussian 09, Revision D.01,
 Gaussian 09:  EM64L-G09RevD.01 24-Apr-2013

 ----------------------------------------------------------------------
 #PBEPBE/gen scf=(maxcycle=500,conver=4) NMR=GIAO Scrf=(solvent=Dichlor
 omethane)
 ----------------------------------------------------------------------

 ------------
 estrutura 88
 ------------
 Symbolic Z-matrix:
 Charge =  0 Multiplicity = 1

                         Standard orientation:
 ---------------------------------------------------------------------
 Center     Atomic      Atomic             Coordinates (Angstroms)
 Number     Number       Type             X           Y           Z
 ---------------------------------------------------------------------
      1         78           0       -0.195184    0.336795   -0.046991
      2          6           0        0.333639    2.444462   -0.161839
      3          6           0        0.412674    3.071430   -1.415913
      4          6           0        0.383972    3.261358    0.978391
      5          6           0        0.487659    4.463090   -1.529319
      6          1           0        0.420786    2.480262   -2.323231
      7          6           0        0.467724    4.652723    0.870685
      8          1           0        0.353109    2.821390    1.966416
      9          6           0        0.513921    5.260777   -0.384555
     10          1           0        0.536644    4.918534   -2.510884
     11          1           0        0.497873    5.257691    1.768478
     12          1           0        0.581068    6.337680   -0.469600
     13         15           0       -2.909850    1.096966    0.162852
     14         15           0       -0.549273   -2.249663   -0.115354
     15          6           0       -3.638815    1.840456   -1.378450
     16          6           0       -4.988567    2.220218   -1.456185
     17          6           0       -2.824793    1.995858   -2.505184
     18          6           0       -5.504039    2.757845   -2.634097
     19          1           0       -5.639540    2.091815   -0.602216
     20          6           0       -3.341095    2.534470   -3.686401
     21          1           0       -1.787426    1.696029   -2.459625
     22          6           0       -4.680256    2.918063   -3.751809
     23          1           0       -6.545212    3.048919   -2.680523
     24          1           0       -2.698363    2.649210   -4.549466
     25          1           0       -5.082607    3.333839   -4.666158
     26          6           0       -2.986798    2.456144    1.430235
     27          6           0       -2.483009    2.184871    2.712287
     28          6           0       -3.471385    3.740053    1.156560
     29          6           0       -2.497153    3.161207    3.706575
     30          1           0       -2.071078    1.209757    2.939533
     31          6           0       -3.472055    4.723588    2.148931
     32          1           0       -3.841591    3.984219    0.171365
     33          6           0       -2.993637    4.436394    3.426980
     34          1           0       -2.112322    2.930125    4.691451
     35          1           0       -3.845398    5.712892    1.918315
     36          1           0       -2.997601    5.198649    4.194664
     37          6           0       -4.315168   -0.026437    0.677661
     38          6           0       -4.708038   -1.030538   -0.222516
     39          6           0       -4.981259    0.078673    1.904877
     40          6           0       -5.749999   -1.900920    0.094639
     41          1           0       -4.212283   -1.130000   -1.179433
     42          6           0       -6.021277   -0.799711    2.223998
     43          1           0       -4.707307    0.846492    2.613551
     44          6           0       -6.409711   -1.789692    1.321218
     45          1           0       -6.043617   -2.661869   -0.616602
     46          1           0       -6.528130   -0.699399    3.175178
     47          1           0       -7.219084   -2.464815    1.566848
     48          6           0        0.853174   -3.437504   -0.435977
     49          6           0        1.051135   -4.036579   -1.685921
     50          6           0        1.751217   -3.723645    0.602310
     51          6           0        2.120731   -4.910974   -1.889824
     52          1           0        0.375651   -3.830733   -2.503568
     53          6           0        2.815436   -4.599764    0.398158
     54          1           0        1.621856   -3.268840    1.574188
     55          6           0        3.004075   -5.197281   -0.849655
     56          1           0        2.260147   -5.364880   -2.862179
     57          1           0        3.496379   -4.811439    1.211939
     58          1           0        3.831516   -5.876171   -1.007905
     59          6           0       -1.709440   -2.653231   -1.514228
     60          6           0       -2.605717   -3.729272   -1.499642
     61          6           0       -1.638210   -1.844833   -2.658028
     62          6           0       -3.411430   -3.992353   -2.607919
     63          1           0       -2.690032   -4.360375   -0.627117
     64          6           0       -2.439172   -2.112539   -3.769330
     65          1           0       -0.956594   -1.003669   -2.681460
     66          6           0       -3.327871   -3.187986   -3.746371
     67          1           0       -4.101503   -4.825501   -2.581618
     68          1           0       -2.370183   -1.480611   -4.645111
     69          1           0       -3.952435   -3.395395   -4.605057
     70          6           0       -1.302100   -2.990468    1.414579
     71          6           0       -1.381196   -4.375764    1.629120
     72          6           0       -1.771709   -2.125344    2.410314
     73          6           0       -1.941753   -4.878454    2.802121
     74          1           0       -0.990469   -5.064568    0.892745
     75          6           0       -2.329224   -2.627675    3.587337
     76          1           0       -1.690962   -1.056522    2.266171
     77          6           0       -2.417939   -4.005442    3.783859
     78          1           0       -1.997732   -5.948581    2.953626
     79          1           0       -2.685647   -1.944810    4.347308
     80          1           0       -2.846932   -4.398212    4.696046
     81         50           0        2.481401    0.495489    0.058509
     82          6           0        3.327677   -0.674268    1.717989
     83          6           0        4.640855   -1.170560    1.675531
     84          6           0        2.576072   -0.894828    2.882893
     85          6           0        5.181812   -1.872131    2.755081
     86          1           0        5.251261   -1.020922    0.792236
     87          6           0        3.114607   -1.588264    3.971054
     88          1           0        1.555077   -0.533370    2.945929
     89          6           0        4.419527   -2.081014    3.907425
     90          1           0        6.194129   -2.253366    2.697479
     91          1           0        2.517500   -1.746248    4.860773
     92          1           0        4.837982   -2.623859    4.744917
     93          6           0        3.791966    2.258949    0.109493
     94          6           0        4.434382    2.599271    1.310923
     95          6           0        4.024975    3.069931   -1.012075
     96          6           0        5.279023    3.710953    1.391605
     97          1           0        4.288945    1.992757    2.196743
     98          6           0        4.870389    4.178991   -0.938950
     99          1           0        3.550475    2.838746   -1.957286
    100          6           0        5.500019    4.503428    0.265099
    101          1           0        5.764051    3.951823    2.329457
    102          1           0        5.037081    4.787723   -1.818799
    103          1           0        6.155963    5.362426    0.322947
    104         53           0        3.574426   -0.698777   -2.295575
 ---------------------------------------------------------------------

 SCF Done:  E(RPBE-PBE) =  -32722.2490861     A.U. after   11 cycles

      1  Pt   Isotropic =  2750.9025   Anisotropy =  3676.0741

      2  C    Isotropic =   -77.6431   Anisotropy =    71.9231

      3  C    Isotropic =   -15.8414   Anisotropy =   140.0712

      4  C    Isotropic =   -15.9580   Anisotropy =   124.7300

      5  C    Isotropic =    27.3197   Anisotropy =   207.0184

      6  H    Isotropic =    24.9324   Anisotropy =    11.3086

      7  C    Isotropic =    27.0816   Anisotropy =   203.1549

      8  H    Isotropic =    26.5150   Anisotropy =    10.3119

      9  C    Isotropic =    61.4383   Anisotropy =   306.7830

     10  H    Isotropic =    21.1078   Anisotropy =    11.2915

     11  H    Isotropic =    22.3307   Anisotropy =     9.8937

     12  H    Isotropic =    19.4793   Anisotropy =    12.3206

     13  P    Isotropic =   273.8618   Anisotropy =    47.7639

     14  P    Isotropic =   267.0351   Anisotropy =    68.1901

     15  C    Isotropic =    28.1287   Anisotropy =   169.2835

     16  C    Isotropic =    33.6759   Anisotropy =   173.3668

     17  C    Isotropic =    30.6504   Anisotropy =   176.3172

     18  C    Isotropic =    54.7548   Anisotropy =   204.3926

     19  H    Isotropic =    25.1534   Anisotropy =    12.8524

     20  C    Isotropic =    49.1705   Anisotropy =   182.4232

     21  H    Isotropic =    23.8226   Anisotropy =    11.1860

     22  C    Isotropic =    57.9623   Anisotropy =   228.7244

     23  H    Isotropic =    23.9634   Anisotropy =     6.6514

     24  H    Isotropic =    23.9157   Anisotropy =     8.9084

     25  H    Isotropic =    23.6246   Anisotropy =     4.9944

     26  C    Isotropic =    28.7433   Anisotropy =   177.3920

     27  C    Isotropic =    32.0451   Anisotropy =   152.0965

     28  C    Isotropic =    37.6573   Anisotropy =   166.9626

     29  C    Isotropic =    56.3204   Anisotropy =   190.6318

     30  H    Isotropic =    23.4396   Anisotropy =    10.6965

     31  C    Isotropic =    56.2265   Anisotropy =   198.8296

     32  H    Isotropic =    25.5332   Anisotropy =    12.7964

     33  C    Isotropic =    63.0514   Anisotropy =   223.2621

     34  H    Isotropic =    23.7410   Anisotropy =     7.4795

     35  H    Isotropic =    23.9053   Anisotropy =     6.8205

     36  H    Isotropic =    23.6573   Anisotropy =     4.5092

     37  C    Isotropic =    32.0759   Anisotropy =   198.3626

     38  C    Isotropic =    42.7736   Anisotropy =   189.9355

     39  C    Isotropic =    44.5073   Anisotropy =   185.9820

     40  C    Isotropic =    48.0978   Anisotropy =   193.8462

     41  H    Isotropic =    26.4739   Anisotropy =     7.4199

     42  C    Isotropic =    53.4342   Anisotropy =   192.2930

     43  H    Isotropic =    24.0974   Anisotropy =    12.6205

     44  C    Isotropic =    54.1473   Anisotropy =   208.0133

     45  H    Isotropic =    25.2583   Anisotropy =     7.4351

     46  H    Isotropic =    24.8360   Anisotropy =     4.8745

     47  H    Isotropic =    25.0696   Anisotropy =     2.9762

     48  C    Isotropic =    40.8592   Anisotropy =   172.0169

     49  C    Isotropic =    47.8807   Anisotropy =   188.3167

     50  C    Isotropic =    56.0963   Anisotropy =   198.6527

     51  C    Isotropic =    43.9149   Anisotropy =   178.8526

     52  H    Isotropic =    24.7089   Anisotropy =    12.1144

     53  C    Isotropic =    57.4185   Anisotropy =   192.7114

     54  H    Isotropic =    25.0795   Anisotropy =     8.6529

     55  C    Isotropic =    64.2817   Anisotropy =   240.0510

     56  H    Isotropic =    22.5303   Anisotropy =     8.8191

     57  H    Isotropic =    24.3776   Anisotropy =     8.4574

     58  H    Isotropic =    22.4351   Anisotropy =     6.1160

     59  C    Isotropic =    48.8966   Anisotropy =   181.4955

     60  C    Isotropic =    68.7681   Anisotropy =   223.3881

     61  C    Isotropic =    49.9105   Anisotropy =   194.3318

     62  C    Isotropic =    38.4295   Anisotropy =   134.2352

     63  H    Isotropic =    23.7650   Anisotropy =    10.0180

     64  C    Isotropic =    61.4701   Anisotropy =   185.7481

     65  H    Isotropic =    22.6537   Anisotropy =    12.1864

     66  C    Isotropic =    50.5759   Anisotropy =   156.2320

     67  H    Isotropic =    24.6182   Anisotropy =     4.5006

     68  H    Isotropic =    24.9987   Anisotropy =     6.0351

     69  H    Isotropic =    24.7600   Anisotropy =     2.7703

     70  C    Isotropic =    87.7455   Anisotropy =   240.2939

     71  C    Isotropic =    83.0870   Anisotropy =   227.1749

     72  C    Isotropic =    76.5852   Anisotropy =   214.2980

     73  C    Isotropic =    57.1510   Anisotropy =   119.0718

     74  H    Isotropic =    24.9401   Anisotropy =    12.2734

     75  C    Isotropic =    82.3695   Anisotropy =   189.2011

     76  H    Isotropic =    20.4467   Anisotropy =    15.4416

     77  C    Isotropic =    39.3906   Anisotropy =    59.2008

     78  H    Isotropic =    28.8476   Anisotropy =     8.7283

     79  H    Isotropic =    25.2739   Anisotropy =     6.9476

     80  H    Isotropic =    29.3468   Anisotropy =    11.5871

     81  Sn   Isotropic =  2112.5252   Anisotropy =   439.0966

     82  C    Isotropic =    45.6344   Anisotropy =   153.1347

     83  C    Isotropic =    62.1416   Anisotropy =   198.8295

     84  C    Isotropic =    59.7356   Anisotropy =   190.6565

     85  C    Isotropic =    33.4772   Anisotropy =   134.0432

     86  H    Isotropic =    23.5101   Anisotropy =    14.3469

     87  C    Isotropic =    40.9858   Anisotropy =   152.9645

     88  H    Isotropic =    21.6082   Anisotropy =    11.5849

     89  C    Isotropic =    30.4291   Anisotropy =   144.1289

     90  H    Isotropic =    22.5611   Anisotropy =     6.9664

     91  H    Isotropic =    23.1180   Anisotropy =     8.3985

     92  H    Isotropic =    21.9428   Anisotropy =     7.3842

     93  C    Isotropic =     7.1992   Anisotropy =   128.4038

     94  C    Isotropic =    49.7679   Anisotropy =   170.7710

     95  C    Isotropic =    39.0926   Anisotropy =   173.5213

     96  C    Isotropic =    48.7197   Anisotropy =   170.0755

     97  H    Isotropic =    25.0801   Anisotropy =    14.6420

     98  C    Isotropic =    44.2253   Anisotropy =   170.8000

     99  H    Isotropic =    24.5344   Anisotropy =    14.2665

    100  C    Isotropic =    57.6714   Anisotropy =   222.6015

    101  H    Isotropic =    23.1685   Anisotropy =     9.8934

    102  H    Isotropic =    22.4504   Anisotropy =    11.0402

    103  H    Isotropic =    21.6587   Anisotropy =     7.0141

    104  I    Isotropic =  4488.9573   Anisotropy =   903.9550

 The electronic state is 1-A.
 Alpha  occ. eigenvalues -- ******************************-427.50201-414.83263
 Alpha  occ. eigenvalues -- -414.83178-414.82987-172.67743-164.63312-164.63209
 Alpha  occ. eigenvalues -- -164.63202-149.61514-141.89362-141.89256-141.89225
 Alpha  occ. eigenvalues --  -99.88242 -92.04087 -92.03936 -92.03690 -78.99932
 Alpha  occ. eigenvalues --  -78.99823 -78.99684 -78.99612 -78.99582 -76.30064
 Alpha  occ. eigenvalues --  -76.29690 -34.77169 -30.80804 -30.80549 -30.80534
 Alpha  occ. eigenvalues --  -28.77947 -25.12739 -25.12434 -25.12330 -22.60198
 Alpha  occ. eigenvalues --  -22.60146 -22.60135 -22.59968 -22.59968 -20.79665
 Alpha  occ. eigenvalues --  -17.67532 -17.67485 -17.67417 -17.67215 -17.67202
 Alpha  occ. eigenvalues --  -17.36476 -17.36181 -17.35650 -11.54772 -11.54396
 Alpha  occ. eigenvalues --  -11.54104 -11.53980 -11.53913  -9.92226  -9.92032
 Alpha  occ. eigenvalues --   -9.91771  -9.91755  -9.91737  -9.91587  -9.90997
 Alpha  occ. eigenvalues --   -9.90867  -9.90718  -9.90636  -9.90557  -9.90550
 Alpha  occ. eigenvalues --   -9.90548  -9.90537  -9.90530  -9.90477  -9.90438
 Alpha  occ. eigenvalues --   -9.90371  -9.90347  -9.90267  -9.90223  -9.90218
 Alpha  occ. eigenvalues --   -9.90209  -9.90184  -9.90179  -9.90162  -9.90126
 Alpha  occ. eigenvalues --   -9.90065  -9.90028  -9.89997  -9.89985  -9.89962
 Alpha  occ. eigenvalues --   -9.89938  -9.89648  -9.89618  -9.89591  -9.89545
 Alpha  occ. eigenvalues --   -9.89521  -9.89398  -9.89358  -9.89310  -9.89267
 Alpha  occ. eigenvalues --   -9.89210  -9.89025  -9.88936  -9.88850  -9.88797
 Alpha  occ. eigenvalues --   -9.88746  -9.88703  -9.88420  -9.88369  -9.88310
 Alpha  occ. eigenvalues --   -9.87951  -9.87855  -6.32991  -6.32607  -5.98429
 Alpha  occ. eigenvalues --   -4.55584  -4.55559  -4.55199  -4.55186  -4.55146
 Alpha  occ. eigenvalues --   -4.54752  -4.53329  -4.52763  -4.52729  -4.46691
 Alpha  occ. eigenvalues --   -3.20460  -3.19852  -3.19673  -3.09627  -3.09569
 Alpha  occ. eigenvalues --   -3.09249  -3.08976  -3.08895  -3.08799  -3.08776
 Alpha  occ. eigenvalues --   -2.82508  -1.89208  -1.89046  -1.89018  -1.88558
 Alpha  occ. eigenvalues --   -1.88557  -1.77466  -1.76949  -1.75262  -0.99360
 Alpha  occ. eigenvalues --   -0.99135  -0.98990  -0.98704  -0.98539  -0.79847
 Alpha  occ. eigenvalues --   -0.79566  -0.79226  -0.78870  -0.78685  -0.78558
 Alpha  occ. eigenvalues --   -0.77677  -0.77157  -0.76572  -0.71367  -0.71166
 Alpha  occ. eigenvalues --   -0.69134  -0.68994  -0.68845  -0.68755  -0.68713
 Alpha  occ. eigenvalues --   -0.68516  -0.68169  -0.68156  -0.68128  -0.68055
 Alpha  occ. eigenvalues --   -0.67560  -0.67226  -0.66999  -0.66534  -0.66464
 Alpha  occ. eigenvalues --   -0.65957  -0.60226  -0.59985  -0.56213  -0.55938
 Alpha  occ. eigenvalues --   -0.55760  -0.55632  -0.55439  -0.55275  -0.54704
 Alpha  occ. eigenvalues --   -0.54690  -0.54610  -0.54569  -0.54550  -0.54198
 Alpha  occ. eigenvalues --   -0.53886  -0.53311  -0.53226  -0.52940  -0.52432
 Alpha  occ. eigenvalues --   -0.51699  -0.51482  -0.47872  -0.47555  -0.47536
 Alpha  occ. eigenvalues --   -0.47467  -0.46840  -0.45923  -0.45591  -0.45486
 Alpha  occ. eigenvalues --   -0.45316  -0.42123  -0.41824  -0.41780  -0.41642
 Alpha  occ. eigenvalues --   -0.41447  -0.41318  -0.41113  -0.40871  -0.40792
 Alpha  occ. eigenvalues --   -0.40690  -0.40409  -0.40228  -0.40164  -0.39956
 Alpha  occ. eigenvalues --   -0.39618  -0.39445  -0.39093  -0.38917  -0.38852
 Alpha  occ. eigenvalues --   -0.38463  -0.38409  -0.38316  -0.38235  -0.38154
 Alpha  occ. eigenvalues --   -0.37933  -0.37579  -0.37398  -0.37190  -0.37072
 Alpha  occ. eigenvalues --   -0.36808  -0.36724  -0.36194  -0.34939  -0.34686
 Alpha  occ. eigenvalues --   -0.34460  -0.34438  -0.34214  -0.34071  -0.33761
 Alpha  occ. eigenvalues --   -0.33708  -0.33429  -0.33262  -0.32953  -0.32932
 Alpha  occ. eigenvalues --   -0.32261  -0.31674  -0.31568  -0.31281  -0.31076
 Alpha  occ. eigenvalues --   -0.30988  -0.30832  -0.30675  -0.29857  -0.29802
 Alpha  occ. eigenvalues --   -0.29666  -0.29492  -0.29455  -0.29318  -0.29297
 Alpha  occ. eigenvalues --   -0.28918  -0.28347  -0.26994  -0.25829  -0.25722
 Alpha  occ. eigenvalues --   -0.25104  -0.24725  -0.24644  -0.24565  -0.24514
 Alpha  occ. eigenvalues --   -0.24295  -0.24056  -0.23917  -0.23735  -0.23643
 Alpha  occ. eigenvalues --   -0.23514  -0.23281  -0.23221  -0.23073  -0.22945
 Alpha  occ. eigenvalues --   -0.22609  -0.22451  -0.22319  -0.22244  -0.21750
 Alpha  occ. eigenvalues --   -0.21495  -0.21243  -0.20540  -0.19349  -0.18334
 Alpha virt. eigenvalues --   -0.08004  -0.07435  -0.06990  -0.06521  -0.06378
 Alpha virt. eigenvalues --   -0.06175  -0.06102  -0.05685  -0.05589  -0.05476
 Alpha virt. eigenvalues --   -0.05112  -0.04941  -0.04647  -0.04624  -0.04325

 Mulliken charges:
               1
     1  Pt   0.348833
     2  C    0.415261
     3  C   -0.166622
     4  C   -0.126047
     5  C   -0.047888
     6  H    0.043364
     7  C    0.021911
     8  H    0.034453
     9  C   -0.626652
    10  H    0.110746
    11  H    0.118290
    12  H    0.135004
    13  P    0.993123
    14  P    0.813056
    15  C   -0.954206
    16  C    0.397554
    17  C    0.413599
    18  C    0.004630
    19  H    0.096794
    20  C   -0.244464
    21  H    0.063752
    22  C   -0.624237
    23  H    0.139724
    24  H    0.132004
    25  H    0.150616
    26  C   -0.800721
    27  C    0.665842
    28  C    0.151077
    29  C    0.012939
    30  H    0.038667
    31  C   -0.203447
    32  H    0.086084
    33  C   -0.475309
    34  H    0.129428
    35  H    0.130898
    36  H    0.144546
    37  C   -0.876753
    38  C    0.513173
    39  C    0.242670
    40  C   -0.110377
    41  H    0.050613
    42  C   -0.196179
    43  H    0.087376
    44  C   -0.485933
    45  H    0.129257
    46  H    0.134502
    47  H    0.145640
    48  C   -0.699144
    49  C    0.188184
    50  C    0.470136
    51  C   -0.231518
    52  H    0.097545
    53  C   -0.102415
    54  H    0.070592
    55  C   -0.514479
    56  H    0.134806
    57  H    0.127409
    58  H    0.141065
    59  C   -0.641028
    60  C    0.134830
    61  C    0.427759
    62  C   -0.057967
    63  H    0.056877
    64  C   -0.030913
    65  H    0.052938
    66  C   -0.531960
    67  H    0.131818
    68  H    0.131923
    69  H    0.142755
    70  C   -0.837045
    71  C    0.414618
    72  C    0.306716
    73  C   -0.033659
    74  H    0.092004
    75  C   -0.217720
    76  H    0.064568
    77  C   -0.596061
    78  H    0.139284
    79  H    0.125149
    80  H    0.147833
    81  Sn   0.339443
    82  C    0.068983
    83  C    0.030933
    84  C    0.001211
    85  C   -0.143442
    86  H    0.107579
    87  C   -0.068991
    88  H    0.070593
    89  C   -0.522213
    90  H    0.141603
    91  H    0.138054
    92  H    0.145651
    93  C   -0.071927
    94  C   -0.015513
    95  C    0.051432
    96  C   -0.105057
    97  H    0.107279
    98  C   -0.138837
    99  H    0.110677
   100  C   -0.481488
   101  H    0.145680
   102  H    0.140803
   103  H    0.151150
   104  I   -0.465095
 Sum of Mulliken charges =   0.00000

 Dipole moment (field-independent basis, Debye):
    X=            -11.7321    Y=             -2.0624    Z=              3.5010  Tot=             12.4158
 Quadrupole moment (field-independent basis, Debye-Ang):
   XX=           -415.0629   YY=           -388.3993   ZZ=           -385.9188
   XY=             -0.5781   XZ=             16.0695   YZ=             -5.6437

 Normal termination of Gaussian 09 at Mon Jan 13 07:09:49 2020.
