 Gaussian 09, Revision A.02,
 Gaussian 09:  EM64L-G09RevA.02 11-Jun-2009

 ----------------------------------------------------------------------
 #PBEPBE/gen scf=(maxcycle=500,conver=4) NMR=GIAO Scrf=(solvent=acetone
 )
 ----------------------------------------------------------------------

 ------------
 estrutura 22
 ------------
 Symbolic Z-matrix:
 Charge = -1 Multiplicity = 1

                         Standard orientation:
 ---------------------------------------------------------------------
 Center     Atomic      Atomic             Coordinates (Angstroms)
 Number     Number       Type             X           Y           Z
 ---------------------------------------------------------------------
      1         50           0       -2.815316   -0.194548   -0.203955
      2         50           0        1.306117    2.323906   -0.058441
      3         17           0       -3.774222   -2.352205    0.455228
      4         17           0       -4.186356    1.313114    1.137325
      5         17           0       -4.006990    0.060749   -2.321565
      6         17           0        2.514772    3.070762    1.935972
      7         17           0        3.116394    2.698366   -1.659817
      8         17           0       -0.033429    4.326681   -0.504978
      9          8           0       -0.739351   -1.024047   -3.297402
     10          8           0        1.732318   -0.589522   -2.618762
     11          6           0        2.335465   -0.656409   -3.924873
     12          1           0        2.715615    0.334568   -4.204005
     13          1           0        3.163216   -1.370137   -3.844902
     14          1           0        1.614536   -1.011896   -4.672879
     15          6           0       -1.146858   -2.377378   -3.039679
     16          1           0       -0.294360   -3.061857   -3.145622
     17          1           0       -1.569786   -2.480416   -2.028587
     18          1           0       -1.922753   -2.611106   -3.778751
     19         78           0       -0.103990   -0.035269   -0.053440
     20         15           0       -0.353848    0.217401    2.252456
     21          8           0        1.022520   -0.184542    2.991450
     22          8           0       -1.537767   -0.546267    3.042665
     23          8           0       -0.707753    1.745037    2.605143
     24          6           0       -1.543308   -1.925257    3.479075
     25          1           0       -2.400439   -2.423681    3.007033
     26          1           0       -0.614840   -2.443287    3.204532
     27          1           0       -1.658801   -1.925278    4.573606
     28          6           0       -1.474168    2.219143    3.733027
     29          1           0       -1.427732    3.313255    3.685903
     30          1           0       -2.513661    1.883156    3.642749
     31          1           0       -1.043794    1.875547    4.683153
     32          6           0        1.389002    0.214321    4.325197
     33          1           0        2.309766   -0.331130    4.566976
     34          1           0        1.582841    1.296665    4.344977
     35          1           0        0.604131   -0.051398    5.050379
     36         50           0        1.630154   -2.126673    0.241952
     37         17           0        3.946147   -1.393520    0.557137
     38         17           0        2.007888   -3.810960   -1.510906
     39         17           0        1.512753   -3.719870    2.111906
     40         15           0        0.215482   -0.118991   -2.360179
     41          8           0        0.130755    1.288395   -3.137722
     42          6           0       -0.980412    1.787698   -3.912764
     43          1           0       -1.893843    1.841919   -3.303953
     44          1           0       -0.690039    2.795295   -4.235713
     45          1           0       -1.153474    1.142235   -4.786511
 ---------------------------------------------------------------------

 SCF Done:  E(RPBE-PBE) =  -40563.9525891     A.U. after   11 cycles

  1  Sn   Isotropic =  2138.2894   Anisotropy =   762.3093

  2  Sn   Isotropic =  2176.7144   Anisotropy =   725.9576

  3  Cl   Isotropic =   697.1496   Anisotropy =   400.2470

  4  Cl   Isotropic =   727.8232   Anisotropy =   374.2886

  5  Cl   Isotropic =   701.9103   Anisotropy =   394.4187

  6  Cl   Isotropic =   730.9945   Anisotropy =   367.7699

  7  Cl   Isotropic =   734.9942   Anisotropy =   369.7312

  8  Cl   Isotropic =   744.6162   Anisotropy =   377.4050

  9  O    Isotropic =   194.3551   Anisotropy =   141.3100

 10  O    Isotropic =   170.8113   Anisotropy =    96.6804

 11  C    Isotropic =   129.8638   Anisotropy =    87.3859

 12  H    Isotropic =    27.6688   Anisotropy =    11.3659

 13  H    Isotropic =    27.8258   Anisotropy =    11.5051

 14  H    Isotropic =    27.4735   Anisotropy =    12.5171

 15  C    Isotropic =   124.3422   Anisotropy =    72.8949

 16  H    Isotropic =    27.2036   Anisotropy =     8.2245

 17  H    Isotropic =    27.5483   Anisotropy =     4.9446

 18  H    Isotropic =    27.4757   Anisotropy =    10.4192

 19  Pt   Isotropic =  3245.3090   Anisotropy =  1161.0993

 20  P    Isotropic =   146.1302   Anisotropy =   191.8996

 21  O    Isotropic =   174.8426   Anisotropy =   114.7690

 22  O    Isotropic =   185.4396   Anisotropy =   142.5728

 23  O    Isotropic =   193.2579   Anisotropy =   108.1810

 24  C    Isotropic =   124.5283   Anisotropy =    86.3946

 25  H    Isotropic =    26.9846   Anisotropy =     7.1943

 26  H    Isotropic =    26.3070   Anisotropy =     7.0900

 27  H    Isotropic =    27.5088   Anisotropy =    12.0161

 28  C    Isotropic =   122.6246   Anisotropy =    92.7306

 29  H    Isotropic =    27.4734   Anisotropy =    11.8365

 30  H    Isotropic =    27.0492   Anisotropy =     9.7485

 31  H    Isotropic =    27.4258   Anisotropy =    12.1724

 32  C    Isotropic =   124.8159   Anisotropy =    89.9641

 33  H    Isotropic =    27.5642   Anisotropy =    11.8480

 34  H    Isotropic =    27.1538   Anisotropy =     9.5721

 35  H    Isotropic =    27.4848   Anisotropy =    12.1919

 36  Sn   Isotropic =  2194.7940   Anisotropy =   761.7869

 37  Cl   Isotropic =   738.6394   Anisotropy =   372.8651

 38  Cl   Isotropic =   727.2733   Anisotropy =   365.1109

 39  Cl   Isotropic =   698.8980   Anisotropy =   395.4449

 40  P    Isotropic =   135.3050   Anisotropy =   201.2243

 41  O    Isotropic =   189.9308   Anisotropy =   144.6536

 42  C    Isotropic =   123.5073   Anisotropy =    85.3985

 43  H    Isotropic =    27.1251   Anisotropy =     7.2118

 44  H    Isotropic =    27.5600   Anisotropy =    11.2246

 45  H    Isotropic =    27.4024   Anisotropy =    11.8835

 The electronic state is 1-A.
 Alpha  occ. eigenvalues -- ****************************************-427.58360
 Alpha  occ. eigenvalues -- -414.91450-414.91207-414.91170-149.66118-149.65737
 Alpha  occ. eigenvalues -- -149.65673-141.93929-141.93922-141.93864-141.93547
 Alpha  occ. eigenvalues -- -141.93542-141.93487-141.93485-141.93478-141.93420
 Alpha  occ. eigenvalues -- -100.55894-100.55834-100.55810-100.55484-100.55419
 Alpha  occ. eigenvalues -- -100.55411-100.55388-100.55358-100.55350 -99.96401
 Alpha  occ. eigenvalues --  -92.12387 -92.11927 -92.11862 -79.08155 -79.07988
 Alpha  occ. eigenvalues --  -79.07951 -79.07691 -79.07688 -76.41486 -76.41480
 Alpha  occ. eigenvalues --  -28.82501 -28.82113 -28.82049 -25.17127 -25.17108
 Alpha  occ. eigenvalues --  -25.16929 -25.16735 -25.16723 -25.16680 -25.16654
 Alpha  occ. eigenvalues --  -25.16545 -25.16475 -20.87873 -18.80314 -18.80204
 Alpha  occ. eigenvalues --  -18.80187 -18.80078 -18.80061 -18.80010 -17.72010
 Alpha  occ. eigenvalues --  -17.72009 -17.71889 -17.71876 -17.71843 -17.71622
 Alpha  occ. eigenvalues --  -17.71621 -17.71561 -17.71560 -17.71501 -17.71493
 Alpha  occ. eigenvalues --  -17.71458 -17.71439 -17.71422 -17.71390 -17.44975
 Alpha  occ. eigenvalues --  -17.44049 -17.43913 -11.63101 -11.62615 -11.62537
 Alpha  occ. eigenvalues --  -11.62002 -11.61996  -9.94864  -9.94835  -9.94645
 Alpha  occ. eigenvalues --   -9.94620  -9.94507  -9.94474  -9.13755  -9.13693
 Alpha  occ. eigenvalues --   -9.13677  -9.13338  -9.13287  -9.13273  -9.13247
 Alpha  occ. eigenvalues --   -9.13214  -9.13214  -6.97542  -6.97465  -6.97458
 Alpha  occ. eigenvalues --   -6.97112  -6.97056  -6.97054  -6.97031  -6.96990
 Alpha  occ. eigenvalues --   -6.96990  -6.96948  -6.96934  -6.96896  -6.96876
 Alpha  occ. eigenvalues --   -6.96873  -6.96855  -6.96538  -6.96525  -6.96486
 Alpha  occ. eigenvalues --   -6.96477  -6.96469  -6.96452  -6.96443  -6.96426
 Alpha  occ. eigenvalues --   -6.96416  -6.96411  -6.96399  -6.96394  -6.43363
 Alpha  occ. eigenvalues --   -6.43348  -4.66062  -4.66059  -4.66020  -4.66015
 Alpha  occ. eigenvalues --   -4.65583  -4.65543  -4.51193  -4.50796  -4.50727
 Alpha  occ. eigenvalues --   -3.24623  -3.24578  -3.24273  -3.24216  -3.24184
 Alpha  occ. eigenvalues --   -3.24160  -3.24111  -3.23881  -3.23802  -3.17967
 Alpha  occ. eigenvalues --   -3.17786  -3.17700  -3.17222  -3.17215  -3.16816
 Alpha  occ. eigenvalues --   -3.16814  -2.90850  -1.86400  -1.84337  -1.83946
 Alpha  occ. eigenvalues --   -1.03640  -1.03624  -1.03305  -1.03254  -1.03222
 Alpha  occ. eigenvalues --   -1.03217  -1.03200  -1.03148  -1.03135  -1.02903
 Alpha  occ. eigenvalues --   -1.02850  -1.02826  -1.02798  -1.02794  -1.02707
 Alpha  occ. eigenvalues --   -1.01500  -1.01364  -0.96335  -0.96251  -0.95872
 Alpha  occ. eigenvalues --   -0.95733  -0.72479  -0.72023  -0.71976  -0.70918
 Alpha  occ. eigenvalues --   -0.70851  -0.70496  -0.70429  -0.70406  -0.70385
 Alpha  occ. eigenvalues --   -0.69519  -0.69300  -0.64865  -0.64744  -0.64473
 Alpha  occ. eigenvalues --   -0.64254  -0.54692  -0.54044  -0.48729  -0.48621
 Alpha  occ. eigenvalues --   -0.48407  -0.48277  -0.47221  -0.45303  -0.42813
 Alpha  occ. eigenvalues --   -0.42750  -0.42609  -0.42457  -0.42310  -0.41937
 Alpha  occ. eigenvalues --   -0.41762  -0.40777  -0.40501  -0.40487  -0.40316
 Alpha  occ. eigenvalues --   -0.40061  -0.39871  -0.39573  -0.35129  -0.34181
 Alpha  occ. eigenvalues --   -0.33864  -0.33400  -0.33177  -0.33053  -0.33011
 Alpha  occ. eigenvalues --   -0.32329  -0.32175  -0.32094  -0.31907  -0.31742
 Alpha  occ. eigenvalues --   -0.31484  -0.31332  -0.30999  -0.30843  -0.30452
 Alpha  occ. eigenvalues --   -0.29834  -0.29087  -0.28755  -0.28641  -0.28398
 Alpha  occ. eigenvalues --   -0.28188  -0.27888  -0.27796  -0.27587  -0.27552
 Alpha  occ. eigenvalues --   -0.27404  -0.27302  -0.27151  -0.27081  -0.26597
 Alpha  occ. eigenvalues --   -0.26485  -0.26345  -0.26196  -0.26171  -0.26038
 Alpha  occ. eigenvalues --   -0.25945  -0.25854  -0.25758  -0.25632  -0.24985
 Alpha  occ. eigenvalues --   -0.21198  -0.20049
 Alpha virt. eigenvalues --   -0.12814  -0.07187  -0.06695  -0.05118  -0.04651
 Alpha virt. eigenvalues --   -0.04128  -0.03542  -0.03418  -0.03247  -0.02736
 Alpha virt. eigenvalues --   -0.01332  -0.01141  -0.00747  -0.00455   0.00026

 Mulliken atomic charges:
              1
     1  Sn   0.497165
     2  Sn   0.471191
     3  Cl  -0.269035
     4  Cl  -0.216749
     5  Cl  -0.205330
     6  Cl  -0.227362
     7  Cl  -0.235535
     8  Cl  -0.258487
     9  O   -0.084544
    10  O   -0.099490
    11  C   -0.184413
    12  H    0.127247
    13  H    0.139638
    14  H    0.106857
    15  C   -0.151602
    16  H    0.117300
    17  H    0.076529
    18  H    0.147567
    19  Pt  -0.806652
    20  P   -0.027710
    21  O   -0.093252
    22  O   -0.159475
    23  O   -0.082721
    24  C   -0.104280
    25  H    0.111833
    26  H    0.075076
    27  H    0.129876
    28  C   -0.144365
    29  H    0.143950
    30  H    0.122290
    31  H    0.108472
    32  C   -0.156789
    33  H    0.140428
    34  H    0.122828
    35  H    0.110212
    36  Sn   0.483680
    37  Cl  -0.266023
    38  Cl  -0.252364
    39  Cl  -0.251234
    40  P   -0.077022
    41  O   -0.098786
    42  C   -0.154842
    43  H    0.097698
    44  H    0.148731
    45  H    0.129495
 Sum of Mulliken atomic charges =  -1.00000

 Dipole moment (field-independent basis, Debye):
    X=             -4.0780    Y=             -1.6198    Z=              0.8130  Tot=              4.4626
 Quadrupole moment (field-independent basis, Debye-Ang):
   XX=           -422.2334   YY=           -403.3597   ZZ=           -280.3175
   XY=             -0.4795   XZ=             -9.9899   YZ=              9.9974

 Normal termination of Gaussian 09 at Sun Jul  5 04:08:01 2020.
