 Gaussian 09, Revision A.02,
 Gaussian 09:  EM64L-G09RevA.02 11-Jun-2009

 ----------------------------------------------------------------------
 #PBEPBE/gen scf=(maxcycle=500,conver=4) NMR=GIAO Scrf=(solvent=Dichlor
 omethane)
 ----------------------------------------------------------------------

 ------------
 estrutura 50
 ------------
 Symbolic Z-matrix:
 Charge =  0 Multiplicity = 1

                         Standard orientation:
 ---------------------------------------------------------------------
 Center     Atomic      Atomic             Coordinates (Angstroms)
 Number     Number       Type             X           Y           Z
 ---------------------------------------------------------------------
      1         78           0       -1.894937   -0.754752   -0.278387
      2         17           0       -0.218603   -2.255643   -1.502157
      3         17           0       -3.103686   -2.635271    0.589476
      4         17           0       -0.834920    1.083582   -1.552260
      5         78           0        0.989079   -0.310224   -0.444684
      6         50           0        2.351362    1.852630   -0.070447
      7         17           0        2.289612    3.389391   -1.918153
      8         17           0        1.814156    3.326746    1.755913
      9         17           0        4.748976    1.626579    0.174556
     10         33           0       -3.686006    0.685831    0.379902
     11         33           0        2.634129   -1.778298    0.537203
     12          6           0       -5.153821    0.010329    1.495742
     13          1           0       -5.231325   -1.055501    1.243512
     14          1           0       -4.793495    0.067218    2.534877
     15          6           0       -6.486670    0.737413    1.309279
     16          1           0       -7.242675    0.287970    1.977272
     17          1           0       -6.427351    1.806215    1.557546
     18          1           0       -6.862757    0.648456    0.275260
     19          6           0       -4.423503    1.169023   -1.380641
     20          1           0       -5.372605    1.709422   -1.251266
     21          1           0       -3.687564    1.873947   -1.798421
     22          6           0       -4.557781   -0.071565   -2.273295
     23          1           0       -3.617170   -0.643424   -2.216995
     24          1           0       -5.366344   -0.740913   -1.935947
     25          1           0       -4.761644    0.216760   -3.316568
     26          6           0       -2.890370    2.268335    1.215926
     27          1           0       -2.101717    2.575408    0.513349
     28          1           0       -2.379942    1.873158    2.109732
     29          6           0       -3.841948    3.411213    1.563131
     30          1           0       -4.605836    3.108071    2.295265
     31          1           0       -3.275273    4.244208    2.008935
     32          1           0       -4.359037    3.802270    0.671624
     33          6           0        3.579566   -1.144241    2.137357
     34          1           0        3.875369   -2.060278    2.674610
     35          1           0        4.493707   -0.643356    1.797648
     36          6           0        2.699822   -0.215113    2.997741
     37          1           0        3.080384    0.817363    2.976568
     38          1           0        1.657358   -0.167949    2.643203
     39          1           0        2.686893   -0.540415    4.047468
     40          6           0        3.842830   -2.225874   -0.941775
     41          1           0        4.529074   -1.365276   -1.001857
     42          1           0        3.165967   -2.139758   -1.807752
     43          6           0        4.580726   -3.558483   -0.870356
     44          1           0        5.181847   -3.694211   -1.786310
     45          1           0        5.268797   -3.603185   -0.011829
     46          1           0        3.891501   -4.412481   -0.801822
     47          6           0        1.646906   -3.367058    1.123095
     48          1           0        1.388444   -3.901260    0.199781
     49          1           0        2.347844   -3.990517    1.697331
     50          6           0        0.390002   -3.002511    1.914631
     51          1           0       -0.196329   -2.263581    1.352815
     52          1           0       -0.244563   -3.892643    2.047937
     53          1           0        0.620549   -2.598042    2.911075
 ---------------------------------------------------------------------

 SCF Done:  E(RPBE-PBE) =  -47899.6543521     A.U. after    9 cycles

  1  Pt   Isotropic =  1721.2436   Anisotropy =  3803.8947

  2  Cl   Isotropic =   917.2239   Anisotropy =   235.6107

  3  Cl   Isotropic =   946.9643   Anisotropy =   194.4191

  4  Cl   Isotropic =  1008.2889   Anisotropy =   249.3469

  5  Pt   Isotropic =  2638.9387   Anisotropy =  2842.8248

  6  Sn   Isotropic =  2084.1003   Anisotropy =   834.5377

  7  Cl   Isotropic =   728.1269   Anisotropy =   363.9554

  8  Cl   Isotropic =   731.0101   Anisotropy =   372.1574

  9  Cl   Isotropic =   738.7580   Anisotropy =   349.3458

 10  As   Isotropic =   830.9978   Anisotropy =   358.5266

 11  As   Isotropic =   810.1262   Anisotropy =   440.1802

 12  C    Isotropic =   155.9865   Anisotropy =    34.0681

 13  H    Isotropic =    27.9152   Anisotropy =     9.1546

 14  H    Isotropic =    29.3061   Anisotropy =     8.7507

 15  C    Isotropic =   170.3392   Anisotropy =    25.1345

 16  H    Isotropic =    29.8858   Anisotropy =    13.7693

 17  H    Isotropic =    30.2638   Anisotropy =     8.9178

 18  H    Isotropic =    30.0633   Anisotropy =     8.7482

 19  C    Isotropic =   155.8552   Anisotropy =    23.2917

 20  H    Isotropic =    28.9287   Anisotropy =    11.5278

 21  H    Isotropic =    29.4014   Anisotropy =     5.9140

 22  C    Isotropic =   166.6298   Anisotropy =    19.1897

 23  H    Isotropic =    27.7526   Anisotropy =    15.4133

 24  H    Isotropic =    30.1990   Anisotropy =     9.7433

 25  H    Isotropic =    29.8002   Anisotropy =    13.3345

 26  C    Isotropic =   143.5981   Anisotropy =    42.8536

 27  H    Isotropic =    28.6733   Anisotropy =    10.2990

 28  H    Isotropic =    28.9868   Anisotropy =     5.7330

 29  C    Isotropic =   169.4731   Anisotropy =    25.9961

 30  H    Isotropic =    30.0385   Anisotropy =     9.9468

 31  H    Isotropic =    29.8979   Anisotropy =    12.4082

 32  H    Isotropic =    30.1291   Anisotropy =     9.1867

 33  C    Isotropic =   156.8127   Anisotropy =    31.3742

 34  H    Isotropic =    29.4315   Anisotropy =    11.7982

 35  H    Isotropic =    28.8388   Anisotropy =     8.1980

 36  C    Isotropic =   170.2484   Anisotropy =    19.5225

 37  H    Isotropic =    29.6743   Anisotropy =     6.9007

 38  H    Isotropic =    29.7161   Anisotropy =     7.4408

 39  H    Isotropic =    29.8648   Anisotropy =    12.5873

 40  C    Isotropic =   144.4893   Anisotropy =    47.9390

 41  H    Isotropic =    28.9458   Anisotropy =     6.8503

 42  H    Isotropic =    28.7678   Anisotropy =     9.6741

 43  C    Isotropic =   172.2121   Anisotropy =    27.4421

 44  H    Isotropic =    30.0897   Anisotropy =    13.6992

 45  H    Isotropic =    30.3639   Anisotropy =    10.9087

 46  H    Isotropic =    30.0866   Anisotropy =     9.0348

 47  C    Isotropic =   149.2235   Anisotropy =    34.1194

 48  H    Isotropic =    28.6097   Anisotropy =     7.7851

 49  H    Isotropic =    29.3688   Anisotropy =    12.4048

 50  C    Isotropic =   163.7605   Anisotropy =    15.5547

 51  H    Isotropic =    28.3419   Anisotropy =    13.7867

 52  H    Isotropic =    29.7903   Anisotropy =    11.2796

 53  H    Isotropic =    30.0292   Anisotropy =     7.3629

 The electronic state is 1-A.
 Alpha  occ. eigenvalues -- ******************************-427.53995-427.53181
 Alpha  occ. eigenvalues -- -422.30067-422.29922-414.87075-414.87001-414.86687
 Alpha  occ. eigenvalues -- -414.86227-414.86175-414.85896-149.66891-141.94699
 Alpha  occ. eigenvalues -- -141.94693-141.94630-100.57132-100.56939-100.56833
 Alpha  occ. eigenvalues -- -100.56742-100.54876-100.53630 -99.92032 -99.91313
 Alpha  occ. eigenvalues --  -92.07993 -92.07772 -92.07312 -92.07188 -92.07074
 Alpha  occ. eigenvalues --  -92.06638 -79.03865 -79.03689 -79.03454 -79.03313
 Alpha  occ. eigenvalues --  -79.03278 -79.03053 -79.02931 -79.02688 -79.02632
 Alpha  occ. eigenvalues --  -79.02563 -53.01741 -53.01609 -47.60988 -47.60984
 Alpha  occ. eigenvalues --  -47.60977 -47.60865 -47.60849 -47.60833 -28.83320
 Alpha  occ. eigenvalues --  -25.17953 -25.17933 -25.17729 -20.83413 -20.82866
 Alpha  occ. eigenvalues --  -17.72832 -17.72831 -17.72694 -17.72680 -17.72643
 Alpha  occ. eigenvalues --  -17.40447 -17.40035 -17.39752 -17.39534 -17.39060
 Alpha  occ. eigenvalues --  -17.38625 -11.58880 -11.58261 -11.58159 -11.57810
 Alpha  occ. eigenvalues --  -11.57722 -11.57498 -11.57452 -11.57220 -11.57118
 Alpha  occ. eigenvalues --  -11.56966  -9.92236  -9.92115  -9.91908  -9.91879
 Alpha  occ. eigenvalues --   -9.91715  -9.91699  -9.89807  -9.89730  -9.89654
 Alpha  occ. eigenvalues --   -9.89629  -9.89055  -9.88691  -9.14912  -9.14791
 Alpha  occ. eigenvalues --   -9.14687  -9.14597  -9.12802  -9.11469  -6.98603
 Alpha  occ. eigenvalues --   -6.98541  -6.98481  -6.98420  -6.98392  -6.97982
 Alpha  occ. eigenvalues --   -6.97972  -6.97956  -6.97874  -6.97863  -6.97772
 Alpha  occ. eigenvalues --   -6.97757  -6.96436  -6.96210  -6.95897  -6.95334
 Alpha  occ. eigenvalues --   -6.94635  -6.94599  -6.73863  -6.73772  -4.86629
 Alpha  occ. eigenvalues --   -4.86616  -4.86603  -4.86565  -4.86525  -4.86487
 Alpha  occ. eigenvalues --   -4.52108  -3.25553  -3.25515  -3.25176  -3.13682
 Alpha  occ. eigenvalues --   -3.13633  -3.13077  -3.13029  -3.12998  -3.12618
 Alpha  occ. eigenvalues --   -3.12537  -3.12482  -3.12294  -3.12288  -3.12180
 Alpha  occ. eigenvalues --   -3.12008  -3.11911  -3.11854  -2.86290  -2.86054
 Alpha  occ. eigenvalues --   -1.81634  -1.81283  -1.81109  -1.80882  -1.78426
 Alpha  occ. eigenvalues --   -1.78298  -1.54458  -1.54456  -1.54426  -1.54393
 Alpha  occ. eigenvalues --   -1.54388  -1.54375  -1.54362  -1.54322  -1.54315
 Alpha  occ. eigenvalues --   -1.54266  -1.04648  -1.04615  -1.04260  -1.04192
 Alpha  occ. eigenvalues --   -1.04164  -0.73662  -0.73403  -0.73266  -0.72267
 Alpha  occ. eigenvalues --   -0.71926  -0.71744  -0.70533  -0.70229  -0.70060
 Alpha  occ. eigenvalues --   -0.69804  -0.69566  -0.68690  -0.61521  -0.61461
 Alpha  occ. eigenvalues --   -0.57145  -0.57072  -0.56599  -0.56542  -0.50465
 Alpha  occ. eigenvalues --   -0.50167  -0.43555  -0.42681  -0.42556  -0.42419
 Alpha  occ. eigenvalues --   -0.42022  -0.41003  -0.40684  -0.40493  -0.39082
 Alpha  occ. eigenvalues --   -0.38657  -0.38442  -0.38000  -0.37927  -0.36313
 Alpha  occ. eigenvalues --   -0.36046  -0.35782  -0.35423  -0.35330  -0.35053
 Alpha  occ. eigenvalues --   -0.34733  -0.34445  -0.34158  -0.33811  -0.33609
 Alpha  occ. eigenvalues --   -0.33305  -0.33219  -0.32953  -0.32515  -0.32367
 Alpha  occ. eigenvalues --   -0.31778  -0.31683  -0.31323  -0.30171  -0.30035
 Alpha  occ. eigenvalues --   -0.29595  -0.29060  -0.28853  -0.28654  -0.28581
 Alpha  occ. eigenvalues --   -0.28349  -0.28089  -0.27943  -0.27781  -0.27462
 Alpha  occ. eigenvalues --   -0.27326  -0.27016  -0.26870  -0.26026  -0.25709
 Alpha  occ. eigenvalues --   -0.25348  -0.24354  -0.23730  -0.22883  -0.22453
 Alpha  occ. eigenvalues --   -0.22005  -0.21283  -0.20875
 Alpha virt. eigenvalues --   -0.13388  -0.12772  -0.06018  -0.04605  -0.03864
 Alpha virt. eigenvalues --   -0.02597  -0.02450  -0.02053  -0.01149  -0.00937
 Alpha virt. eigenvalues --   -0.00700  -0.00222  -0.00105   0.00467   0.00811

 Mulliken atomic charges:
              1
     1  Pt   0.057731
     2  Cl  -0.450122
     3  Cl  -0.423508
     4  Cl  -0.380467
     5  Pt  -0.158992
     6  Sn   0.344991
     7  Cl  -0.156007
     8  Cl  -0.214925
     9  Cl  -0.237911
    10  As   0.485980
    11  As   0.534506
    12  C   -0.411442
    13  H    0.152654
    14  H    0.145237
    15  C   -0.151454
    16  H    0.146297
    17  H    0.116860
    18  H    0.121572
    19  C   -0.487332
    20  H    0.151534
    21  H    0.157732
    22  C   -0.050054
    23  H    0.075980
    24  H    0.105850
    25  H    0.127766
    26  C   -0.368677
    27  H    0.140728
    28  H    0.137700
    29  C   -0.182323
    30  H    0.119764
    31  H    0.149302
    32  H    0.120130
    33  C   -0.411456
    34  H    0.151245
    35  H    0.143970
    36  C   -0.077872
    37  H    0.101701
    38  H    0.059204
    39  H    0.122112
    40  C   -0.409597
    41  H    0.141212
    42  H    0.152551
    43  C   -0.163033
    44  H    0.147375
    45  H    0.123382
    46  H    0.120452
    47  C   -0.477638
    48  H    0.154416
    49  H    0.143887
    50  C   -0.023123
    51  H    0.078688
    52  H    0.110237
    53  H    0.093188
 Sum of Mulliken atomic charges =   0.00000

 Dipole moment (field-independent basis, Debye):
    X=             -4.3631    Y=             -3.7462    Z=              5.5184  Tot=              7.9701
 Quadrupole moment (field-independent basis, Debye-Ang):
   XX=           -239.3300   YY=           -298.1778   ZZ=           -275.5459
   XY=            -64.6141   XZ=              0.6523   YZ=             -0.8646

 Normal termination of Gaussian 09 at Mon Jun 17 21:18:41 2019.
