 Gaussian 09, Revision D.01,
 Gaussian 09:  EM64L-G09RevD.01 24-Apr-2013

 ----------------------------------------------------------------------
 #PBEPBE/gen scf=(maxcycle=500,conver=4) NMR=GIAO Scrf=(solvent=Dichlor
 omethane)
 ----------------------------------------------------------------------

 ------------
 estrutura 60
 ------------
 Symbolic Z-matrix:
 Charge =  0 Multiplicity = 1

                         Standard orientation:
 ---------------------------------------------------------------------
 Center     Atomic      Atomic             Coordinates (Angstroms)
 Number     Number       Type             X           Y           Z
 ---------------------------------------------------------------------
      1         15           0        2.297967   -0.514589    0.352423
      2         15           0       -2.404191   -0.734604    0.060666
      3          6           0        3.232032    1.033782    0.442950
      4          6           0        3.594053    1.275736    1.726371
      5          6           0        3.192535    0.200735    2.686395
      6          6           0        2.551634   -0.844136    2.107892
      7          6           0        4.307920    2.507866    2.193661
      8          6           0        3.491188    0.308287    4.152164
      9          6           0       -3.568938    0.146609   -1.002857
     10          6           0       -4.344180   -0.738552   -1.674368
     11          6           0       -4.069499   -2.172460   -1.338169
     12          6           0       -3.087097   -2.342095   -0.422027
     13          6           0       -5.391224   -0.362827   -2.681966
     14          6           0       -4.847990   -3.283064   -1.977918
     15          1           0        3.423465    1.693539   -0.402817
     16          1           0        2.136899   -1.707340    2.626082
     17          1           0        5.240672    2.251758    2.722867
     18          1           0        4.550349    3.174194    1.354369
     19          1           0        3.682117    3.069089    2.908082
     20          1           0        3.200849    1.292512    4.555112
     21          1           0        2.966903   -0.471099    4.721315
     22          1           0        4.573650    0.194393    4.338779
     23          1           0       -3.595292    1.227301   -1.132599
     24          1           0       -2.717809   -3.293696   -0.042821
     25          1           0       -6.350882   -0.864597   -2.466864
     26          1           0       -5.560178    0.724097   -2.697947
     27          1           0       -5.086873   -0.681396   -3.696336
     28          1           0       -4.811100   -3.216173   -3.076891
     29          1           0       -4.463165   -4.266427   -1.675623
     30          1           0       -5.912118   -3.228641   -1.694705
     31         78           0       -0.043104   -0.520847   -0.049021
     32         50           0        0.012404    1.915269   -0.933762
     33         17           0        0.484149    3.656231    0.672915
     34         17           0       -1.800567    3.002723   -2.104073
     35         17           0        1.737175    2.336701   -2.595559
     36         17           0        0.098467   -2.850581    0.708385
     37          6           0       -2.890881   -0.408240    1.807328
     38          6           0       -2.314885   -1.174573    2.837893
     39          6           0       -3.802181    0.611512    2.128129
     40          6           0       -2.658847   -0.923931    4.168906
     41          1           0       -1.591605   -1.957444    2.597482
     42          6           0       -4.132964    0.862526    3.464964
     43          1           0       -4.257643    1.215558    1.341484
     44          6           0       -3.563288    0.096080    4.485725
     45          1           0       -2.209447   -1.526410    4.962499
     46          1           0       -4.838347    1.662284    3.704752
     47          1           0       -3.822240    0.296018    5.529235
     48          6           0        3.277647   -1.668837   -0.676476
     49          6           0        3.627984   -2.947838   -0.209891
     50          6           0        3.679427   -1.257672   -1.961124
     51          6           0        4.387219   -3.800804   -1.017433
     52          1           0        3.310055   -3.282691    0.779912
     53          6           0        4.439606   -2.113530   -2.760243
     54          1           0        3.398972   -0.268894   -2.340541
     55          6           0        4.796034   -3.383605   -2.291198
     56          1           0        4.660495   -4.792976   -0.647803
     57          1           0        4.755785   -1.783352   -3.755286
     58          1           0        5.393147   -4.051173   -2.916949
 ---------------------------------------------------------------------

 SCF Done:  E(RPBE-PBE) =  -26542.8748151     A.U. after   10 cycles

      1  P    Isotropic =   256.3189   Anisotropy =    52.8883

      2  P    Isotropic =   262.1668   Anisotropy =    62.7716

      3  C    Isotropic =    46.2023   Anisotropy =   124.5099

      4  C    Isotropic =    20.0836   Anisotropy =   145.9139

      5  C    Isotropic =    25.1594   Anisotropy =   172.8664

      6  C    Isotropic =    47.1381   Anisotropy =   106.0648

      7  C    Isotropic =   163.2266   Anisotropy =    27.0850

      8  C    Isotropic =   164.6212   Anisotropy =    31.1592

      9  C    Isotropic =    53.8729   Anisotropy =   127.7059

     10  C    Isotropic =    19.0941   Anisotropy =   150.5155

     11  C    Isotropic =    23.7524   Anisotropy =   159.2345

     12  C    Isotropic =    51.8412   Anisotropy =   115.9131

     13  C    Isotropic =   162.9977   Anisotropy =    30.4222

     14  C    Isotropic =   164.0261   Anisotropy =    31.7564

     15  H    Isotropic =    24.1199   Anisotropy =     6.7575

     16  H    Isotropic =    24.0815   Anisotropy =     9.7531

     17  H    Isotropic =    29.1375   Anisotropy =    10.2335

     18  H    Isotropic =    29.2603   Anisotropy =     6.1953

     19  H    Isotropic =    29.4036   Anisotropy =     6.4363

     20  H    Isotropic =    29.1915   Anisotropy =     6.5107

     21  H    Isotropic =    28.9427   Anisotropy =     6.8185

     22  H    Isotropic =    29.0724   Anisotropy =    10.3430

     23  H    Isotropic =    23.9104   Anisotropy =     8.0808

     24  H    Isotropic =    23.8108   Anisotropy =    10.8793

     25  H    Isotropic =    29.0894   Anisotropy =     8.8143

     26  H    Isotropic =    28.9952   Anisotropy =     6.1124

     27  H    Isotropic =    29.1464   Anisotropy =     7.8871

     28  H    Isotropic =    29.2790   Anisotropy =     7.5654

     29  H    Isotropic =    29.1630   Anisotropy =     6.9842

     30  H    Isotropic =    29.4093   Anisotropy =     9.1419

     31  Pt   Isotropic =  3120.8191   Anisotropy =  1783.0247

     32  Sn   Isotropic =  2092.6489   Anisotropy =   884.9336

     33  Cl   Isotropic =   742.9826   Anisotropy =   341.3514

     34  Cl   Isotropic =   711.5107   Anisotropy =   352.6110

     35  Cl   Isotropic =   704.6083   Anisotropy =   358.8932

     36  Cl   Isotropic =   904.8563   Anisotropy =   503.7975

     37  C    Isotropic =    50.6402   Anisotropy =   164.0738

     38  C    Isotropic =    45.2284   Anisotropy =   192.6113

     39  C    Isotropic =    53.6598   Anisotropy =   167.6358

     40  C    Isotropic =    53.0344   Anisotropy =   174.6304

     41  H    Isotropic =    22.3769   Anisotropy =    13.8259

     42  C    Isotropic =    52.7119   Anisotropy =   175.7146

     43  H    Isotropic =    24.0557   Anisotropy =    11.2063

     44  C    Isotropic =    48.4120   Anisotropy =   165.5661

     45  H    Isotropic =    23.9615   Anisotropy =     6.9652

     46  H    Isotropic =    24.7516   Anisotropy =     4.8174

     47  H    Isotropic =    24.6148   Anisotropy =     2.3498

     48  C    Isotropic =    70.7079   Anisotropy =   163.8298

     49  C    Isotropic =    63.1891   Anisotropy =   197.6663

     50  C    Isotropic =    65.8597   Anisotropy =   209.0498

     51  C    Isotropic =    36.8880   Anisotropy =   142.0932

     52  H    Isotropic =    23.1823   Anisotropy =    12.5649

     53  C    Isotropic =    41.2528   Anisotropy =   150.4319

     54  H    Isotropic =    23.2314   Anisotropy =    12.2678

     55  C    Isotropic =    28.0792   Anisotropy =   136.7400

     56  H    Isotropic =    22.9546   Anisotropy =     7.3119

     57  H    Isotropic =    23.0798   Anisotropy =     7.9664

     58  H    Isotropic =    22.6396   Anisotropy =     4.9281

 The electronic state is 1-A.
 Alpha  occ. eigenvalues -- ********************-427.54988-414.88058-414.87969
 Alpha  occ. eigenvalues -- -414.87700-149.66516-141.94330-141.94324-141.94254
 Alpha  occ. eigenvalues -- -100.56417-100.56293-100.56278-100.53237 -99.93042
 Alpha  occ. eigenvalues --  -92.08959 -92.08775 -92.08364 -79.04815 -79.04688
 Alpha  occ. eigenvalues --  -79.04465 -79.04357 -79.04306 -76.32051 -76.31736
 Alpha  occ. eigenvalues --  -28.82910 -25.17551 -25.17534 -25.17306 -20.84509
 Alpha  occ. eigenvalues --  -17.72439 -17.72438 -17.72284 -17.72274 -17.72230
 Alpha  occ. eigenvalues --  -17.41470 -17.41114 -17.40253 -11.59820 -11.59377
 Alpha  occ. eigenvalues --  -11.58920 -11.58695 -11.58590  -9.93295  -9.92956
 Alpha  occ. eigenvalues --   -9.92914  -9.92748  -9.92704  -9.92609  -9.91423
 Alpha  occ. eigenvalues --   -9.91335  -9.91238  -9.90903  -9.90780  -9.90741
 Alpha  occ. eigenvalues --   -9.90734  -9.90715  -9.90695  -9.90693  -9.90671
 Alpha  occ. eigenvalues --   -9.90651  -9.90578  -9.90518  -9.89723  -9.89608
 Alpha  occ. eigenvalues --   -9.89567  -9.89510  -9.14306  -9.14170  -9.14151
 Alpha  occ. eigenvalues --   -9.11059  -6.98111  -6.97962  -6.97954  -6.97486
 Alpha  occ. eigenvalues --   -6.97469  -6.97357  -6.97343  -6.97337  -6.97315
 Alpha  occ. eigenvalues --   -6.94819  -6.94287  -6.94237  -6.35067  -6.34744
 Alpha  occ. eigenvalues --   -4.57590  -4.57570  -4.57361  -4.57274  -4.57247
 Alpha  occ. eigenvalues --   -4.57032  -4.51654  -3.25107  -3.25067  -3.24698
 Alpha  occ. eigenvalues --   -3.14686  -3.14642  -3.14141  -3.13811  -3.13673
 Alpha  occ. eigenvalues --   -3.13486  -3.13454  -2.87484  -1.82819  -1.82178
 Alpha  occ. eigenvalues --   -1.79668  -1.04167  -1.04161  -1.03790  -1.03734
 Alpha  occ. eigenvalues --   -1.03693  -0.80027  -0.79883  -0.78944  -0.78828
 Alpha  occ. eigenvalues --   -0.73167  -0.71459  -0.71397  -0.70705  -0.70517
 Alpha  occ. eigenvalues --   -0.69885  -0.69772  -0.69034  -0.68924  -0.68467
 Alpha  occ. eigenvalues --   -0.67215  -0.67114  -0.61672  -0.61551  -0.59500
 Alpha  occ. eigenvalues --   -0.59190  -0.55851  -0.55799  -0.54781  -0.54604
 Alpha  occ. eigenvalues --   -0.51479  -0.51167  -0.47471  -0.47329  -0.46508
 Alpha  occ. eigenvalues --   -0.46273  -0.43780  -0.43351  -0.42977  -0.41803
 Alpha  occ. eigenvalues --   -0.41759  -0.41679  -0.41502  -0.40242  -0.39815
 Alpha  occ. eigenvalues --   -0.39737  -0.39347  -0.38564  -0.38430  -0.38033
 Alpha  occ. eigenvalues --   -0.36747  -0.36646  -0.36561  -0.36503  -0.36337
 Alpha  occ. eigenvalues --   -0.36069  -0.35937  -0.35434  -0.35199  -0.34552
 Alpha  occ. eigenvalues --   -0.34036  -0.33322  -0.33267  -0.32722  -0.32224
 Alpha  occ. eigenvalues --   -0.32107  -0.32003  -0.31697  -0.31559  -0.31378
 Alpha  occ. eigenvalues --   -0.31102  -0.30440  -0.29391  -0.28957  -0.28731
 Alpha  occ. eigenvalues --   -0.28494  -0.28366  -0.28153  -0.27105  -0.26999
 Alpha  occ. eigenvalues --   -0.26742  -0.26605  -0.25988  -0.25000  -0.24639
 Alpha  occ. eigenvalues --   -0.24584  -0.24317  -0.23678  -0.23114  -0.22381
 Alpha  occ. eigenvalues --   -0.22266  -0.21774  -0.21598
 Alpha virt. eigenvalues --   -0.12877  -0.09502  -0.08363  -0.06734  -0.06464
 Alpha virt. eigenvalues --   -0.05807  -0.05626  -0.05025  -0.04036  -0.03141
 Alpha virt. eigenvalues --   -0.01706  -0.01389  -0.00933  -0.00344   0.00116

 Mulliken charges:
               1
     1  P   -0.376565
     2  P   -0.083130
     3  C    0.087841
     4  C   -0.461426
     5  C   -0.364757
     6  C    0.434029
     7  C   -0.120246
     8  C   -0.158634
     9  C    0.197691
    10  C   -0.328374
    11  C   -0.408784
    12  C    0.137026
    13  C   -0.154567
    14  C   -0.171502
    15  H    0.113732
    16  H    0.120339
    17  H    0.144407
    18  H    0.127757
    19  H    0.132968
    20  H    0.135271
    21  H    0.134742
    22  H    0.144002
    23  H    0.114362
    24  H    0.127790
    25  H    0.142991
    26  H    0.131742
    27  H    0.142533
    28  H    0.141480
    29  H    0.134289
    30  H    0.143155
    31  Pt   0.869769
    32  Sn   0.311321
    33  Cl  -0.223912
    34  Cl  -0.163886
    35  Cl  -0.254299
    36  Cl  -0.444303
    37  C   -0.738160
    38  C    0.379934
    39  C    0.197835
    40  C   -0.131258
    41  H    0.116514
    42  C   -0.155502
    43  H    0.126228
    44  C   -0.474997
    45  H    0.149526
    46  H    0.150296
    47  H    0.155996
    48  C   -0.684474
    49  C    0.240291
    50  C    0.295540
    51  C   -0.127352
    52  H    0.129919
    53  C   -0.149756
    54  H    0.118292
    55  C   -0.515429
    56  H    0.150479
    57  H    0.152578
    58  H    0.158648
 Sum of Mulliken charges =   0.00000

 Dipole moment (field-independent basis, Debye):
    X=             -1.2536    Y=             -5.7351    Z=              4.2648  Tot=              7.2562
 Quadrupole moment (field-independent basis, Debye-Ang):
   XX=           -221.5134   YY=           -296.8459   ZZ=           -251.8491
   XY=              2.0806   XZ=             13.1895   YZ=             20.2568

 Normal termination of Gaussian 09 at Sat Aug 24 07:24:17 2019.
