 Gaussian 09, Revision D.01,
 Gaussian 09:  EM64L-G09RevD.01 24-Apr-2013

 ----------------------------------------------------------------------
 #PBEPBE/gen scf=(maxcycle=500,conver=4) NMR=GIAO scrf=(solvent=dichlor
 omethane)
 ----------------------------------------------------------------------

 ------------
 estrutura 16
 ------------
 Symbolic Z-matrix:
 Charge =  0 Multiplicity = 1

                         Standard orientation:
 ---------------------------------------------------------------------
 Center     Atomic      Atomic             Coordinates (Angstroms)
 Number     Number       Type             X           Y           Z
 ---------------------------------------------------------------------
      1         78           0        0.111332   -0.664681   -0.132690
      2         17           0        0.378225   -3.032304   -0.608981
      3         50           0       -2.457204   -1.425986    0.094137
      4         17           0       -2.890536   -3.452913    1.347829
      5         17           0       -3.634814   -1.956925   -1.967861
      6         17           0       -4.175137   -0.084483    1.202194
      7         15           0        2.435804   -0.450290   -0.033442
      8         15           0       -0.474589    1.521209    0.015647
      9          8           0        3.087123    0.834446    0.712274
     10          8           0        3.252883   -0.436018   -1.422187
     11          8           0        3.019143   -1.759496    0.685307
     12          6           0        3.501020    0.676768   -2.331335
     13          1           0        3.636671    1.577929   -1.719138
     14          6           0        4.388320   -2.268477    0.553809
     15          1           0        5.027640   -1.434730    0.224241
     16          6           0        3.016122    1.276495    2.113323
     17          1           0        2.494121    2.246148    2.068087
     18          6           0        4.801642    0.363555   -3.053984
     19          1           0        5.073341    1.210916   -3.704033
     20          1           0        5.619748    0.204518   -2.337358
     21          1           0        4.697691   -0.535431   -3.679199
     22          6           0        2.312843    0.853147   -3.265431
     23          1           0        2.127468   -0.068331   -3.839286
     24          1           0        1.408661    1.113985   -2.696955
     25          1           0        2.513023    1.671634   -3.975785
     26          6           0        4.828308   -2.739404    1.933967
     27          1           0        4.165221   -3.546306    2.293481
     28          1           0        5.856252   -3.133623    1.878035
     29          1           0        4.809979   -1.915357    2.664460
     30          6           0        4.398546   -3.375042   -0.490692
     31          1           0        3.740306   -4.199432   -0.179785
     32          1           0        4.048358   -2.995054   -1.460023
     33          1           0        5.419520   -3.765862   -0.614097
     34          6           0        4.445435    1.505271    2.574287
     35          1           0        5.001473    0.555733    2.617252
     36          1           0        4.973127    2.186370    1.892494
     37          1           0        4.447981    1.952604    3.578899
     38          6           0        2.225287    0.342024    3.018308
     39          1           0        1.182962    0.238500    2.686140
     40          1           0        2.679988   -0.658793    3.067367
     41          1           0        2.213019    0.763564    4.033352
     42          8           0       -0.681470    1.933512    1.546828
     43          8           0       -1.888055    1.705332   -0.747702
     44          8           0        0.504625    2.607698   -0.682499
     45          6           0       -1.321393    2.979073    2.362211
     46          1           0       -0.590694    3.801867    2.422848
     47          6           0       -2.620204    3.486368    1.763688
     48          1           0       -3.329743    2.664188    1.603588
     49          1           0       -3.067992    4.210061    2.459744
     50          1           0       -2.462855    4.005983    0.810035
     51          6           0       -1.509431    2.356781    3.735655
     52          1           0       -2.252534    1.545942    3.687892
     53          1           0       -0.562965    1.945295    4.111269
     54          1           0       -1.862876    3.119363    4.445830
     55          6           0        1.075905    3.847810   -0.139971
     56          1           0        1.123165    3.734135    0.954317
     57          6           0        2.483803    3.977194   -0.695929
     58          1           0        2.968688    4.869544   -0.272593
     59          1           0        3.086536    3.097526   -0.434004
     60          1           0        2.459226    4.086549   -1.792249
     61          6           0        0.201120    5.038807   -0.501485
     62          1           0        0.133115    5.154060   -1.592960
     63          1           0       -0.812676    4.951074   -0.093449
     64          1           0        0.646869    5.955646   -0.088988
     65          6           0       -2.262186    2.468816   -1.941321
     66          1           0       -1.610350    3.356144   -1.980377
     67          6           0       -2.060252    1.622888   -3.189071
     68          1           0       -1.015298    1.294451   -3.287495
     69          1           0       -2.703700    0.729001   -3.157532
     70          1           0       -2.319796    2.209929   -4.083039
     71          6           0       -3.710474    2.885059   -1.743589
     72          1           0       -4.070092    3.422582   -2.631050
     73          1           0       -4.344548    1.999503   -1.589430
     74          1           0       -3.831952    3.544859   -0.875509
 ---------------------------------------------------------------------

 SCF Done:  E(RPBE-PBE) =  -26775.1910019     A.U. after   10 cycles

      1  Pt   Isotropic =  2550.8288   Anisotropy =  2199.4090

      2  Cl   Isotropic =   994.3804   Anisotropy =   612.3072

      3  Sn   Isotropic =  2221.7797   Anisotropy =   642.7253

      4  Cl   Isotropic =   776.7840   Anisotropy =   300.8396

      5  Cl   Isotropic =   782.6001   Anisotropy =   309.5885

      6  Cl   Isotropic =   755.2901   Anisotropy =   302.2369

      7  P    Isotropic =   182.4843   Anisotropy =   155.3595

      8  P    Isotropic =   178.4558   Anisotropy =   183.7776

      9  O    Isotropic =   145.0628   Anisotropy =   121.2936

     10  O    Isotropic =   153.5967   Anisotropy =    72.9557

     11  O    Isotropic =   148.1109   Anisotropy =    64.9525

     12  C    Isotropic =   103.6199   Anisotropy =    76.0076

     13  H    Isotropic =    26.3883   Anisotropy =     3.2747

     14  C    Isotropic =   105.9823   Anisotropy =    72.3540

     15  H    Isotropic =    26.4394   Anisotropy =     5.9065

     16  C    Isotropic =   100.8376   Anisotropy =    78.3425

     17  H    Isotropic =    26.3837   Anisotropy =     3.1767

     18  C    Isotropic =   158.7635   Anisotropy =    42.1395

     19  H    Isotropic =    30.2450   Anisotropy =    10.8132

     20  H    Isotropic =    30.0052   Anisotropy =     8.0646

     21  H    Isotropic =    30.1715   Anisotropy =     7.2723

     22  C    Isotropic =   158.4612   Anisotropy =    30.3267

     23  H    Isotropic =    30.1752   Anisotropy =     4.6649

     24  H    Isotropic =    29.2473   Anisotropy =    10.0351

     25  H    Isotropic =    30.3124   Anisotropy =     9.0504

     26  C    Isotropic =   158.1137   Anisotropy =    37.7916

     27  H    Isotropic =    29.9595   Anisotropy =     6.1022

     28  H    Isotropic =    30.2748   Anisotropy =    11.1412

     29  H    Isotropic =    29.7335   Anisotropy =     6.2209

     30  C    Isotropic =   157.7385   Anisotropy =    37.1814

     31  H    Isotropic =    30.1465   Anisotropy =     5.0702

     32  H    Isotropic =    29.8157   Anisotropy =     3.7244

     33  H    Isotropic =    30.5234   Anisotropy =    11.1605

     34  C    Isotropic =   157.2424   Anisotropy =    41.5434

     35  H    Isotropic =    30.0501   Anisotropy =     6.0080

     36  H    Isotropic =    29.9037   Anisotropy =     7.9522

     37  H    Isotropic =    30.2595   Anisotropy =    10.9293

     38  C    Isotropic =   159.1360   Anisotropy =    22.6735

     39  H    Isotropic =    28.9055   Anisotropy =     9.7909

     40  H    Isotropic =    29.5382   Anisotropy =     4.2847

     41  H    Isotropic =    30.2629   Anisotropy =     9.3462

     42  O    Isotropic =   148.3033   Anisotropy =    65.2153

     43  O    Isotropic =    98.3482   Anisotropy =   138.4960

     44  O    Isotropic =   146.0503   Anisotropy =    92.4625

     45  C    Isotropic =    92.1329   Anisotropy =    93.2566

     46  H    Isotropic =    26.2692   Anisotropy =     5.5348

     47  C    Isotropic =   157.0009   Anisotropy =    25.0059

     48  H    Isotropic =    29.0785   Anisotropy =     6.7581

     49  H    Isotropic =    30.2483   Anisotropy =    10.6471

     50  H    Isotropic =    29.3722   Anisotropy =     3.9796

     51  C    Isotropic =   157.1265   Anisotropy =    37.8052

     52  H    Isotropic =    29.7793   Anisotropy =     3.4923

     53  H    Isotropic =    29.7624   Anisotropy =     6.1726

     54  H    Isotropic =    30.3263   Anisotropy =    11.5741

     55  C    Isotropic =    99.8338   Anisotropy =    77.5756

     56  H    Isotropic =    26.2472   Anisotropy =     3.6715

     57  C    Isotropic =   157.4152   Anisotropy =    36.6254

     58  H    Isotropic =    30.1686   Anisotropy =    10.3427

     59  H    Isotropic =    29.3308   Anisotropy =     7.8630

     60  H    Isotropic =    30.1690   Anisotropy =     5.1574

     61  C    Isotropic =   157.3350   Anisotropy =    38.6264

     62  H    Isotropic =    30.0323   Anisotropy =     5.9402

     63  H    Isotropic =    29.6496   Anisotropy =     6.2291

     64  H    Isotropic =    30.0836   Anisotropy =    10.9998

     65  C    Isotropic =    99.3365   Anisotropy =    83.8640

     66  H    Isotropic =    26.2826   Anisotropy =     3.3112

     67  C    Isotropic =   156.9654   Anisotropy =    33.5901

     68  H    Isotropic =    29.8968   Anisotropy =     5.6745

     69  H    Isotropic =    29.5152   Anisotropy =     6.0324

     70  H    Isotropic =    30.4149   Anisotropy =    10.8994

     71  C    Isotropic =   158.7318   Anisotropy =    36.0901

     72  H    Isotropic =    30.5761   Anisotropy =    11.3741

     73  H    Isotropic =    29.9149   Anisotropy =     3.7392

     74  H    Isotropic =    29.8554   Anisotropy =     6.2114

 The electronic state is 1-A.
 Alpha  occ. eigenvalues -- ********************-427.55941-414.88976-414.88950
 Alpha  occ. eigenvalues -- -414.88652-149.65650-141.93465-141.93460-141.93392
 Alpha  occ. eigenvalues -- -100.55710-100.55481-100.55315-100.53084 -99.94000
 Alpha  occ. eigenvalues --  -92.09837 -92.09793 -92.09342 -79.05755 -79.05635
 Alpha  occ. eigenvalues --  -79.05388 -79.05366 -79.05285 -76.41181 -76.39973
 Alpha  occ. eigenvalues --  -28.82015 -25.16657 -25.16635 -25.16416 -20.85469
 Alpha  occ. eigenvalues --  -18.79480 -18.79369 -18.79254 -18.79105 -18.78796
 Alpha  occ. eigenvalues --  -18.78654 -17.71546 -17.71545 -17.71397 -17.71384
 Alpha  occ. eigenvalues --  -17.71342 -17.42281 -17.42188 -17.41253 -11.60741
 Alpha  occ. eigenvalues --  -11.60309 -11.59812 -11.59763 -11.59592  -9.97414
 Alpha  occ. eigenvalues --   -9.97253  -9.97047  -9.96634  -9.96453  -9.96106
 Alpha  occ. eigenvalues --   -9.89496  -9.89165  -9.89044  -9.88890  -9.88867
 Alpha  occ. eigenvalues --   -9.88839  -9.88785  -9.88702  -9.88635  -9.88535
 Alpha  occ. eigenvalues --   -9.88497  -9.88038  -9.13538  -9.13314  -9.13155
 Alpha  occ. eigenvalues --   -9.10926  -6.97333  -6.97120  -6.96942  -6.96728
 Alpha  occ. eigenvalues --   -6.96718  -6.96511  -6.96476  -6.96361  -6.96327
 Alpha  occ. eigenvalues --   -6.94708  -6.94142  -6.94088  -6.42972  -6.41922
 Alpha  occ. eigenvalues --   -4.65728  -4.65648  -4.65133  -4.64638  -4.64586
 Alpha  occ. eigenvalues --   -4.64080  -4.50691  -3.24129  -3.24104  -3.23735
 Alpha  occ. eigenvalues --   -3.15602  -3.15584  -3.15079  -3.14782  -3.14603
 Alpha  occ. eigenvalues --   -3.14540  -3.14473  -2.88462  -1.83651  -1.83338
 Alpha  occ. eigenvalues --   -1.80598  -1.03159  -1.03146  -1.02803  -1.02757
 Alpha  occ. eigenvalues --   -1.02678  -1.00292  -1.00199  -0.95423  -0.95153
 Alpha  occ. eigenvalues --   -0.94959  -0.94794  -0.74755  -0.73958  -0.72733
 Alpha  occ. eigenvalues --   -0.72229  -0.72131  -0.72086  -0.71769  -0.70579
 Alpha  occ. eigenvalues --   -0.70315  -0.68408  -0.64068  -0.63768  -0.63591
 Alpha  occ. eigenvalues --   -0.63303  -0.63073  -0.62791  -0.61628  -0.60969
 Alpha  occ. eigenvalues --   -0.56761  -0.56160  -0.55880  -0.55338  -0.51468
 Alpha  occ. eigenvalues --   -0.50396  -0.49016  -0.48510  -0.47873  -0.47044
 Alpha  occ. eigenvalues --   -0.44865  -0.44251  -0.43657  -0.42806  -0.42589
 Alpha  occ. eigenvalues --   -0.42136  -0.41885  -0.41366  -0.40862  -0.40453
 Alpha  occ. eigenvalues --   -0.40275  -0.39714  -0.39585  -0.39337  -0.38268
 Alpha  occ. eigenvalues --   -0.37469  -0.37297  -0.36395  -0.36369  -0.35930
 Alpha  occ. eigenvalues --   -0.35814  -0.35768  -0.35545  -0.35265  -0.35171
 Alpha  occ. eigenvalues --   -0.34982  -0.34922  -0.34763  -0.34597  -0.34412
 Alpha  occ. eigenvalues --   -0.33966  -0.33513  -0.33404  -0.33341  -0.33004
 Alpha  occ. eigenvalues --   -0.32780  -0.32693  -0.32425  -0.32319  -0.32114
 Alpha  occ. eigenvalues --   -0.32053  -0.31393  -0.31353  -0.30922  -0.30621
 Alpha  occ. eigenvalues --   -0.30059  -0.29852  -0.29512  -0.29246  -0.28917
 Alpha  occ. eigenvalues --   -0.28558  -0.28314  -0.27992  -0.27692  -0.27459
 Alpha  occ. eigenvalues --   -0.27334  -0.26990  -0.26868  -0.26133  -0.25931
 Alpha  occ. eigenvalues --   -0.25756  -0.25571  -0.25253  -0.23739  -0.23241
 Alpha  occ. eigenvalues --   -0.22329  -0.21141
 Alpha virt. eigenvalues --   -0.11661  -0.06621  -0.03345  -0.03281  -0.02392
 Alpha virt. eigenvalues --   -0.02087  -0.01363  -0.01146  -0.00850  -0.00566
 Alpha virt. eigenvalues --    0.00156   0.00405   0.00593   0.00734   0.01087

 Mulliken charges:
               1
     1  Pt  -0.356696
     2  Cl  -0.497171
     3  Sn   0.344366
     4  Cl  -0.220401
     5  Cl  -0.240808
     6  Cl  -0.244456
     7  P   -0.055961
     8  P    0.046562
     9  O   -0.156064
    10  O   -0.123744
    11  O   -0.123682
    12  C   -0.105883
    13  H    0.049572
    14  C   -0.055159
    15  H    0.049725
    16  C   -0.125259
    17  H    0.057285
    18  C   -0.221857
    19  H    0.145593
    20  H    0.120456
    21  H    0.122060
    22  C   -0.034333
    23  H    0.093574
    24  H    0.032221
    25  H    0.127190
    26  C   -0.194737
    27  H    0.125410
    28  H    0.143929
    29  H    0.107394
    30  C   -0.216240
    31  H    0.114518
    32  H    0.105237
    33  H    0.140454
    34  C   -0.183561
    35  H    0.097291
    36  H    0.118651
    37  H    0.140933
    38  C   -0.010409
    39  H    0.040261
    40  H    0.072300
    41  H    0.117002
    42  O   -0.095433
    43  O   -0.138836
    44  O   -0.167863
    45  C   -0.255659
    46  H    0.079627
    47  C    0.026655
    48  H    0.063019
    49  H    0.127222
    50  H    0.047683
    51  C   -0.126956
    52  H    0.095671
    53  H    0.102563
    54  H    0.144850
    55  C   -0.172590
    56  H    0.052193
    57  C   -0.070628
    58  H    0.131800
    59  H    0.069407
    60  H    0.100127
    61  C   -0.025249
    62  H    0.097829
    63  H    0.075299
    64  H    0.126832
    65  C   -0.155786
    66  H    0.059125
    67  C   -0.009196
    68  H    0.060043
    69  H    0.074355
    70  H    0.129305
    71  C   -0.130673
    72  H    0.140797
    73  H    0.098435
    74  H    0.100468
 Sum of Mulliken charges =   0.00000

 Dipole moment (field-independent basis, Debye):
    X=             15.6763    Y=             19.9749    Z=              1.2948  Tot=             25.4248
 Quadrupole moment (field-independent basis, Debye-Ang):
   XX=           -287.7033   YY=           -279.7297   ZZ=           -267.8184
   XY=            -26.1975   XZ=              6.0794   YZ=             -0.2557

 Normal termination of Gaussian 09 at Fri Mar 15 16:11:50 2019.
