 Gaussian 09, Revision D.01,
 Gaussian 09:  EM64L-G09RevD.01 24-Apr-2013

 ----------------------------------------------------------------------
 #PBEPBE/gen scf=(maxcycle=500,conver=3) NMR=GIAO Scrf=(solvent=Dichlor
 omethane)
 ----------------------------------------------------------------------

 -------------
 estrutura 110
 -------------
 Symbolic Z-matrix:
 Charge =  0 Multiplicity = 1

                         Standard orientation:
 ---------------------------------------------------------------------
 Center     Atomic      Atomic             Coordinates (Angstroms)
 Number     Number       Type             X           Y           Z
 ---------------------------------------------------------------------
      1         78           0       -0.173317    0.524541   -0.105320
      2         15           0        2.198389    0.946452   -0.050542
      3          6           0        3.474286   -0.399218   -0.030962
      4          6           0        4.238272   -0.714493    1.105382
      5          6           0        3.736371   -1.075533   -1.237232
      6          6           0        5.250752   -1.676716    1.031786
      7          1           0        4.060244   -0.205248    2.053373
      8          6           0        4.747836   -2.034333   -1.307338
      9          1           0        3.157067   -0.846536   -2.134734
     10          6           0        5.510167   -2.336702   -0.172785
     11          1           0        5.838917   -1.907695    1.924916
     12          1           0        4.939759   -2.546740   -2.254034
     13          1           0        6.306162   -3.082813   -0.230316
     14          6           0        2.508964    1.912101    1.490202
     15          6           0        3.090346    3.190099    1.479263
     16          6           0        2.082613    1.362860    2.714629
     17          6           0        3.250857    3.902581    2.672418
     18          1           0        3.405982    3.646136    0.539798
     19          6           0        2.253191    2.074043    3.905205
     20          1           0        1.609959    0.376257    2.742178
     21          6           0        2.836956    3.347498    3.886810
     22          1           0        3.697085    4.901416    2.646398
     23          1           0        1.921794    1.633622    4.849515
     24          1           0        2.960810    3.908020    4.816696
     25          6           0        2.849984    1.944108   -1.462850
     26          6           0        4.229508    2.227268   -1.513623
     27          6           0        2.028692    2.370376   -2.516064
     28          6           0        4.771641    2.937924   -2.586292
     29          1           0        4.891930    1.884646   -0.716743
     30          6           0        2.575773    3.074912   -3.596150
     31          1           0        0.960418    2.162089   -2.492899
     32          6           0        3.943530    3.361668   -3.632864
     33          1           0        5.844368    3.156445   -2.606595
     34          1           0        1.924906    3.401250   -4.410984
     35          1           0        4.368800    3.911376   -4.476632
     36         50           0       -0.045136   -2.096938    0.110194
     37         15           0       -2.559945    0.264723   -0.062262
     38          6           0       -3.620267    1.771528   -0.176018
     39          6           0       -3.790408    2.397436   -1.423356
     40          6           0       -4.257104    2.308502    0.952964
     41          6           0       -4.590442    3.534918   -1.537728
     42          1           0       -3.298928    1.996972   -2.312920
     43          6           0       -5.060609    3.446440    0.833140
     44          1           0       -4.137534    1.840655    1.931553
     45          6           0       -5.230118    4.061918   -0.409800
     46          1           0       -4.715874    4.011981   -2.512994
     47          1           0       -5.558689    3.849384    1.718729
     48          1           0       -5.860712    4.949623   -0.501547
     49          6           0       -3.165957   -0.737094   -1.494760
     50          6           0       -4.489760   -1.210130   -1.614463
     51          6           0       -2.277548   -0.946925   -2.566291
     52          6           0       -4.887853   -1.924087   -2.746794
     53          1           0       -5.236825   -1.020584   -0.840983
     54          6           0       -2.687542   -1.639173   -3.711238
     55          1           0       -1.255671   -0.558478   -2.508679
     56          6           0       -3.988049   -2.141923   -3.798672
     57          1           0       -5.912479   -2.304982   -2.810682
     58          1           0       -1.980272   -1.786843   -4.532355
     59          1           0       -4.305248   -2.695369   -4.685725
     60          6           0       -3.045477   -0.482209    1.557012
     61          6           0       -4.210057   -1.238668    1.772837
     62          6           0       -2.209623   -0.199831    2.655067
     63          6           0       -4.524206   -1.710415    3.049242
     64          1           0       -4.879946   -1.473146    0.948407
     65          6           0       -2.529832   -0.664565    3.933849
     66          1           0       -1.300148    0.386749    2.506563
     67          6           0       -3.687030   -1.423925    4.133579
     68          1           0       -5.432385   -2.303389    3.195557
     69          1           0       -1.868075   -0.434276    4.773121
     70          1           0       -3.935182   -1.793081    5.131209
     71         35           0       -0.444961    3.108791   -0.075456
     72         35           0        1.008613   -3.266473   -1.974993
     73         35           0        1.430085   -2.833717    2.131564
     74          6           0       -1.647045   -3.543142    0.425878
     75          1           0       -2.116928   -3.363278    1.401215
     76          1           0       -2.385641   -3.458691   -0.382537
     77          1           0       -1.174523   -4.534024    0.406476
 ---------------------------------------------------------------------

 SCF Done:  E(RPBE-PBE) =  -32906.1207190     A.U. after    8 cycles

      1  Pt   Isotropic =  3183.0228   Anisotropy =  1497.7605

      2  P    Isotropic =   281.2261   Anisotropy =    65.2517

      3  C    Isotropic =   192.1180   Anisotropy =   266.9975

      4  C    Isotropic =   162.9811   Anisotropy =   388.1835

      5  C    Isotropic =   159.0031   Anisotropy =   383.2659

      6  C    Isotropic =     0.6610   Anisotropy =    65.8469

      7  H    Isotropic =    23.3702   Anisotropy =    11.6100

      8  C    Isotropic =    29.4831   Anisotropy =   118.9118

      9  H    Isotropic =    21.8757   Anisotropy =    18.2658

     10  C    Isotropic =   -80.5570   Anisotropy =   146.3662

     11  H    Isotropic =    22.4885   Anisotropy =     8.8586

     12  H    Isotropic =    22.5955   Anisotropy =     9.3036

     13  H    Isotropic =    22.5282   Anisotropy =     5.9449

     14  C    Isotropic =   152.9605   Anisotropy =   235.7138

     15  C    Isotropic =   161.4509   Anisotropy =   351.2937

     16  C    Isotropic =   105.2120   Anisotropy =   282.8333

     17  C    Isotropic =    -0.1193   Anisotropy =    89.7426

     18  H    Isotropic =    25.1190   Anisotropy =     9.9078

     19  C    Isotropic =    48.5392   Anisotropy =   126.6834

     20  H    Isotropic =    19.7326   Anisotropy =    14.3076

     21  C    Isotropic =   -51.4657   Anisotropy =   117.7131

     22  H    Isotropic =    26.8856   Anisotropy =     5.6619

     23  H    Isotropic =    22.1535   Anisotropy =     9.1041

     24  H    Isotropic =    24.9451   Anisotropy =     2.3789

     25  C    Isotropic =    93.5030   Anisotropy =    99.8407

     26  C    Isotropic =   150.3407   Anisotropy =   372.4339

     27  C    Isotropic =    66.1926   Anisotropy =   272.4028

     28  C    Isotropic =   -13.3973   Anisotropy =    76.3604

     29  H    Isotropic =    22.9069   Anisotropy =    13.3710

     30  C    Isotropic =   -16.0295   Anisotropy =    72.6936

     31  H    Isotropic =    20.9733   Anisotropy =    12.6903

     32  C    Isotropic =    -6.7329   Anisotropy =   158.7136

     33  H    Isotropic =    16.6484   Anisotropy =    15.5554

     34  H    Isotropic =    16.8695   Anisotropy =    14.8541

     35  H    Isotropic =    12.0705   Anisotropy =    19.4869

     36  Sn   Isotropic =  1874.9733   Anisotropy =   650.3708

     37  P    Isotropic =   270.4504   Anisotropy =    70.3013

     38  C    Isotropic =    28.8188   Anisotropy =   215.8781

     39  C    Isotropic =    37.7168   Anisotropy =   186.3155

     40  C    Isotropic =    35.5753   Anisotropy =   169.4815

     41  C    Isotropic =    72.8332   Anisotropy =   207.6044

     42  H    Isotropic =    24.3974   Anisotropy =    16.8342

     43  C    Isotropic =    68.5520   Anisotropy =   203.4058

     44  H    Isotropic =    25.2321   Anisotropy =    17.9881

     45  C    Isotropic =    36.6459   Anisotropy =   121.8452

     46  H    Isotropic =    27.3654   Anisotropy =     3.9669

     47  H    Isotropic =    27.3778   Anisotropy =     4.0206

     48  H    Isotropic =    29.3604   Anisotropy =     9.7427

     49  C    Isotropic =    37.1339   Anisotropy =   134.4076

     50  C    Isotropic =    46.0589   Anisotropy =   193.0957

     51  C    Isotropic =    36.1290   Anisotropy =   181.9164

     52  C    Isotropic =    15.5757   Anisotropy =   171.5509

     53  H    Isotropic =    22.1701   Anisotropy =    10.8165

     54  C    Isotropic =    -8.4817   Anisotropy =   105.5653

     55  H    Isotropic =    22.7397   Anisotropy =    13.9136

     56  C    Isotropic =    40.8087   Anisotropy =   342.5772

     57  H    Isotropic =    14.6546   Anisotropy =    17.0673

     58  H    Isotropic =    19.4272   Anisotropy =    13.1242

     59  H    Isotropic =    13.3908   Anisotropy =    19.2442

     60  C    Isotropic =    35.5972   Anisotropy =   156.3387

     61  C    Isotropic =    65.6484   Anisotropy =   247.0625

     62  C    Isotropic =    22.1610   Anisotropy =   164.9968

     63  C    Isotropic =     6.6607   Anisotropy =   131.2442

     64  H    Isotropic =    22.7642   Anisotropy =    10.2454

     65  C    Isotropic =    -2.3834   Anisotropy =   139.8950

     66  H    Isotropic =    22.8342   Anisotropy =    13.5709

     67  C    Isotropic =    36.6443   Anisotropy =   345.3434

     68  H    Isotropic =    16.1027   Anisotropy =    14.5430

     69  H    Isotropic =    19.2078   Anisotropy =    13.6630

     70  H    Isotropic =    14.2984   Anisotropy =    18.2339

     71  Br   Isotropic =  2222.9514   Anisotropy =   352.1456

     72  Br   Isotropic =  2366.0908   Anisotropy =   547.1954

     73  Br   Isotropic =  2386.4939   Anisotropy =   567.8054

     74  C    Isotropic =   166.3042   Anisotropy =    34.2538

     75  H    Isotropic =    33.4083   Anisotropy =     8.9833

     76  H    Isotropic =    33.1582   Anisotropy =     7.2436

     77  H    Isotropic =    31.9369   Anisotropy =    13.8197

 The electronic state is 1-A.
 Alpha  occ. eigenvalues -- ********************-478.59071-478.58976-478.56439
 Alpha  occ. eigenvalues -- -427.54717-414.87780-414.87703-414.87460-149.63101
 Alpha  occ. eigenvalues -- -141.90908-141.90892-141.90771 -99.92758 -92.08622
 Alpha  occ. eigenvalues --  -92.08508 -92.08126 -79.04498 -79.04387 -79.04181
 Alpha  occ. eigenvalues --  -79.04111 -79.04059 -76.32063 -76.32061 -61.50958
 Alpha  occ. eigenvalues --  -61.50861 -61.48322 -55.69375 -55.69279 -55.69176
 Alpha  occ. eigenvalues --  -55.69155 -55.69077 -55.69061 -55.66727 -55.66549
 Alpha  occ. eigenvalues --  -55.66519 -28.79700 -25.14403 -25.14348 -25.13982
 Alpha  occ. eigenvalues --  -20.84198 -17.69270 -17.69265 -17.69025 -17.68987
 Alpha  occ. eigenvalues --  -17.68915 -17.41055 -17.40839 -17.40015 -11.59429
 Alpha  occ. eigenvalues --  -11.59032 -11.58597 -11.58453 -11.58341  -9.93579
 Alpha  occ. eigenvalues --   -9.93404  -9.93211  -9.93195  -9.93178  -9.92224
 Alpha  occ. eigenvalues --   -9.91819  -9.91742  -9.91701  -9.91696  -9.91464
 Alpha  occ. eigenvalues --   -9.91377  -9.91362  -9.91298  -9.91174  -9.90923
 Alpha  occ. eigenvalues --   -9.90831  -9.90784  -9.90722  -9.90715  -9.90710
 Alpha  occ. eigenvalues --   -9.90701  -9.90695  -9.90665  -9.90662  -9.90593
 Alpha  occ. eigenvalues --   -9.90591  -9.90567  -9.90526  -9.90470  -9.90341
 Alpha  occ. eigenvalues --   -9.90309  -9.90280  -9.90059  -9.90020  -9.89982
 Alpha  occ. eigenvalues --   -9.88361  -8.33908  -8.33796  -8.31292  -6.35092
 Alpha  occ. eigenvalues --   -6.35086  -6.24619  -6.24508  -6.24034  -6.23979
 Alpha  occ. eigenvalues --   -6.23916  -6.23873  -6.21975  -6.21443  -6.21363
 Alpha  occ. eigenvalues --   -4.57641  -4.57623  -4.57608  -4.57607  -4.57338
 Alpha  occ. eigenvalues --   -4.57334  -4.48725  -3.22327  -3.22250  -3.21560
 Alpha  occ. eigenvalues --   -3.14295  -3.14269  -3.13800  -3.13514  -3.13377
 Alpha  occ. eigenvalues --   -3.13247  -3.13209  -2.87104  -2.45601  -2.45489
 Alpha  occ. eigenvalues --   -2.45457  -2.45417  -2.45343  -2.45311  -2.44984
 Alpha  occ. eigenvalues --   -2.44983  -2.44873  -2.44873  -2.42957  -2.42835
 Alpha  occ. eigenvalues --   -2.42778  -2.42385  -2.42384  -1.82302  -1.81712
 Alpha  occ. eigenvalues --   -1.79412  -1.01483  -1.01345  -1.00878  -1.00781
 Alpha  occ. eigenvalues --   -1.00757  -0.80261  -0.80140  -0.79508  -0.79208
 Alpha  occ. eigenvalues --   -0.79108  -0.78982  -0.72165  -0.71994  -0.69448
 Alpha  occ. eigenvalues --   -0.69379  -0.69233  -0.69058  -0.68953  -0.68815
 Alpha  occ. eigenvalues --   -0.68711  -0.68642  -0.68530  -0.68392  -0.67480
 Alpha  occ. eigenvalues --   -0.66620  -0.64275  -0.61661  -0.61349  -0.61024
 Alpha  occ. eigenvalues --   -0.56548  -0.56309  -0.56295  -0.55797  -0.55688
 Alpha  occ. eigenvalues --   -0.55546  -0.55209  -0.55080  -0.54946  -0.54802
 Alpha  occ. eigenvalues --   -0.52426  -0.51992  -0.48072  -0.48026  -0.47806
 Alpha  occ. eigenvalues --   -0.47603  -0.46249  -0.45760  -0.42738  -0.42319
 Alpha  occ. eigenvalues --   -0.42303  -0.42055  -0.41887  -0.41712  -0.41644
 Alpha  occ. eigenvalues --   -0.41090  -0.41045  -0.40941  -0.40804  -0.40485
 Alpha  occ. eigenvalues --   -0.40307  -0.39237  -0.38799  -0.38652  -0.38558
 Alpha  occ. eigenvalues --   -0.38467  -0.38389  -0.38377  -0.38090  -0.37576
 Alpha  occ. eigenvalues --   -0.37414  -0.36945  -0.36469  -0.36240  -0.35227
 Alpha  occ. eigenvalues --   -0.34725  -0.34450  -0.34202  -0.34129  -0.33845
 Alpha  occ. eigenvalues --   -0.33458  -0.32715  -0.32057  -0.31946  -0.31633
 Alpha  occ. eigenvalues --   -0.31462  -0.31403  -0.31196  -0.31125  -0.31108
 Alpha  occ. eigenvalues --   -0.30543  -0.30317  -0.29994  -0.29737  -0.28812
 Alpha  occ. eigenvalues --   -0.28703  -0.27434  -0.27088  -0.26847  -0.26071
 Alpha  occ. eigenvalues --   -0.25576  -0.25454  -0.25073  -0.24993  -0.24799
 Alpha  occ. eigenvalues --   -0.24719  -0.24673  -0.24485  -0.24314  -0.24257
 Alpha  occ. eigenvalues --   -0.24114  -0.23987  -0.23712  -0.23095  -0.22691
 Alpha  occ. eigenvalues --   -0.22462  -0.21413  -0.21178  -0.20838
 Alpha virt. eigenvalues --   -0.11264  -0.08403  -0.07589  -0.07066  -0.06782
 Alpha virt. eigenvalues --   -0.06625  -0.06514  -0.06322  -0.06096  -0.05917
 Alpha virt. eigenvalues --   -0.05766  -0.05063  -0.04847  -0.04269  -0.03582

 Mulliken charges:
               1
     1  Pt  -0.233953
     2  P    1.062182
     3  C   -0.780726
     4  C    0.169181
     5  C    0.393697
     6  C   -0.104637
     7  H    0.092699
     8  C   -0.080864
     9  H    0.115662
    10  C   -0.490503
    11  H    0.141662
    12  H    0.139665
    13  H    0.154170
    14  C   -0.664278
    15  C    0.183699
    16  C    0.480325
    17  C   -0.251234
    18  H    0.098372
    19  C   -0.009989
    20  H    0.077810
    21  C   -0.544813
    22  H    0.148665
    23  H    0.147241
    24  H    0.157268
    25  C   -0.681784
    26  C    0.315717
    27  C    0.222324
    28  C    0.080227
    29  H    0.101670
    30  C   -0.291428
    31  H    0.123550
    32  C   -0.601745
    33  H    0.146498
    34  H    0.144192
    35  H    0.152790
    36  Sn  -0.212944
    37  P    1.577736
    38  C   -0.930646
    39  C    0.442883
    40  C    0.325111
    41  C   -0.087232
    42  H    0.102114
    43  C   -0.169760
    44  H    0.112595
    45  C   -0.551975
    46  H    0.150293
    47  H    0.146355
    48  H    0.153769
    49  C   -0.887428
    50  C    0.285440
    51  C    0.383642
    52  C   -0.105384
    53  H    0.099011
    54  C   -0.067851
    55  H    0.077477
    56  C   -0.529842
    57  H    0.146264
    58  H    0.140723
    59  H    0.149502
    60  C   -0.535774
    61  C    0.078901
    62  C    0.434581
    63  C   -0.125785
    64  H    0.065711
    65  C   -0.092921
    66  H    0.071327
    67  C   -0.520236
    68  H    0.144354
    69  H    0.139034
    70  H    0.146435
    71  Br  -0.404571
    72  Br  -0.188207
    73  Br  -0.166864
    74  C   -0.227390
    75  H    0.096534
    76  H    0.097261
    77  H    0.124443
 Sum of Mulliken charges =   0.00000

 Dipole moment (field-independent basis, Debye):
    X=             -4.7832    Y=              1.6018    Z=             -0.1859  Tot=              5.0477
 Quadrupole moment (field-independent basis, Debye-Ang):
   XX=           -290.6901   YY=           -369.5983   ZZ=           -310.3829
   XY=             22.3952   XZ=             -3.4842   YZ=             -1.2281

 Normal termination of Gaussian 09 at Sun Dec  1 00:14:31 2019.
