 Gaussian 09, Revision D.01,
 Gaussian 09:  EM64L-G09RevD.01 24-Apr-2013

 ----------------------------------------------------------------------
 #PBEPBE/gen scf=(maxcycle=500,conver=3) NMR=GIAO Scrf=(solvent=Dichlor
 omethane)
 ----------------------------------------------------------------------

 -------------
 estrutura 111
 -------------
 Symbolic Z-matrix:
 Charge =  0 Multiplicity = 1

                         Standard orientation:
 ---------------------------------------------------------------------
 Center     Atomic      Atomic             Coordinates (Angstroms)
 Number     Number       Type             X           Y           Z
 ---------------------------------------------------------------------
      1         78           0       -0.030457   -0.786610   -0.029152
      2         15           0       -2.444342   -0.713238    0.004998
      3          6           0       -3.446744    0.836563   -0.191552
      4          6           0       -4.177150    1.414908    0.858486
      5          6           0       -3.543597    1.399256   -1.476659
      6          6           0       -4.992458    2.527526    0.624759
      7          1           0       -4.127950    0.997723    1.863969
      8          6           0       -4.358732    2.509096   -1.706966
      9          1           0       -2.992653    0.963070   -2.311962
     10          6           0       -5.088044    3.075775   -0.656757
     11          1           0       -5.558960    2.961568    1.452393
     12          1           0       -4.422823    2.931011   -2.712933
     13          1           0       -5.731048    3.940783   -0.838489
     14          6           0       -2.978969   -1.399272    1.630829
     15          6           0       -3.799122   -2.531323    1.752666
     16          6           0       -2.493343   -0.775775    2.794996
     17          6           0       -4.143205   -3.018126    3.018262
     18          1           0       -4.162482   -3.048238    0.864260
     19          6           0       -2.844221   -1.262429    4.056783
     20          1           0       -1.838587    0.096626    2.718810
     21          6           0       -3.672052   -2.385162    4.171153
     22          1           0       -4.780555   -3.902880    3.097570
     23          1           0       -2.463719   -0.765634    4.952663
     24          1           0       -3.942601   -2.767611    5.158475
     25          6           0       -3.226107   -1.729264   -1.325352
     26          6           0       -4.630566   -1.807426   -1.398462
     27          6           0       -2.456971   -2.356569   -2.316135
     28          6           0       -5.247546   -2.525120   -2.424626
     29          1           0       -5.250709   -1.294956   -0.660348
     30          6           0       -3.079100   -3.063708   -3.351354
     31          1           0       -1.369500   -2.296480   -2.277626
     32          6           0       -4.472212   -3.156299   -3.403735
     33          1           0       -6.338434   -2.580556   -2.465002
     34          1           0       -2.467516   -3.544732   -4.118527
     35          1           0       -4.955805   -3.712863   -4.210553
     36         50           0        0.389638    1.822535   -0.043498
     37         15           0        2.347848   -1.066915   -0.068639
     38          6           0        3.041237   -2.779771   -0.045577
     39          6           0        3.176472   -3.496199   -1.247504
     40          6           0        3.425281   -3.387541    1.160297
     41          6           0        3.700563   -4.791247   -1.241396
     42          1           0        2.879421   -3.045267   -2.196388
     43          6           0        3.949054   -4.684058    1.161503
     44          1           0        3.321865   -2.853623    2.106194
     45          6           0        4.090441   -5.387717   -0.037908
     46          1           0        3.806315   -5.335104   -2.183342
     47          1           0        4.249239   -5.142806    2.106621
     48          1           0        4.504222   -6.399377   -0.035200
     49          6           0        3.077036   -0.386586   -1.627158
     50          6           0        4.464221   -0.317235   -1.862140
     51          6           0        2.201392   -0.022322   -2.665554
     52          6           0        4.954330    0.158091   -3.080361
     53          1           0        5.180159   -0.653836   -1.112358
     54          6           0        2.694718    0.432839   -3.893432
     55          1           0        1.122303   -0.108964   -2.521203
     56          6           0        4.071567    0.536921   -4.098329
     57          1           0        6.033751    0.220695   -3.237094
     58          1           0        1.994734    0.704736   -4.686695
     59          1           0        4.459051    0.900644   -5.053293
     60          6           0        3.108779   -0.300398    1.435981
     61          6           0        4.458106    0.084262    1.532402
     62          6           0        2.290735   -0.177296    2.574385
     63          6           0        4.968132    0.592157    2.729602
     64          1           0        5.128471   -0.000604    0.679741
     65          6           0        2.805995    0.323016    3.774542
     66          1           0        1.240624   -0.475299    2.526094
     67          6           0        4.145209    0.712472    3.854364
     68          1           0        6.017609    0.892356    2.781617
     69          1           0        2.152824    0.409541    4.645852
     70          1           0        4.548393    1.107785    4.790007
     71         35           0       -0.317824   -3.351361    0.292193
     72         35           0       -0.489795    3.050580   -2.171534
     73         35           0       -0.938617    2.893534    1.939307
     74          6           0        2.348120    2.834614    0.143028
     75          1           0        2.661344    2.652245    1.182759
     76          1           0        2.996360    2.229127   -0.508122
     77          6           0        2.450360    4.316430   -0.226585
     78          1           0        3.525959    4.547542   -0.355660
     79          1           0        1.990158    4.496968   -1.213839
     80          6           0        1.868423    5.295415    0.798722
     81          1           0        0.787677    5.112988    0.917694
     82          1           0        2.316989    5.086772    1.787516
     83          6           0        2.102240    6.761671    0.432249
     84          1           0        1.618291    7.019612   -0.524916
     85          1           0        1.695313    7.437295    1.201809
     86          1           0        3.178095    6.983469    0.329292
 ---------------------------------------------------------------------

 SCF Done:  E(RPBE-PBE) =  -33023.9231328     A.U. after    8 cycles

      1  Pt   Isotropic =  3231.8360   Anisotropy =  1496.3798

      2  P    Isotropic =   279.6979   Anisotropy =    62.9430

      3  C    Isotropic =   170.5091   Anisotropy =   159.4673

      4  C    Isotropic =   143.6223   Anisotropy =   339.6457

      5  C    Isotropic =   142.9809   Anisotropy =   338.3165

      6  C    Isotropic =     6.2771   Anisotropy =    39.7087

      7  H    Isotropic =    23.8188   Anisotropy =    14.2733

      8  C    Isotropic =    36.4944   Anisotropy =    84.4573

      9  H    Isotropic =    22.9372   Anisotropy =    16.4547

     10  C    Isotropic =   -44.7316   Anisotropy =    94.3108

     11  H    Isotropic =    20.8782   Anisotropy =    12.2401

     12  H    Isotropic =    22.0978   Anisotropy =    10.7277

     13  H    Isotropic =    20.8532   Anisotropy =     9.2321

     14  C    Isotropic =   120.2872   Anisotropy =   148.7352

     15  C    Isotropic =   140.1649   Anisotropy =   309.8004

     16  C    Isotropic =    85.7500   Anisotropy =   241.9492

     17  C    Isotropic =   -19.5982   Anisotropy =    84.4078

     18  H    Isotropic =    23.8889   Anisotropy =    10.3880

     19  C    Isotropic =    22.9943   Anisotropy =   114.0418

     20  H    Isotropic =    21.5344   Anisotropy =    11.1493

     21  C    Isotropic =   -25.4806   Anisotropy =    58.2682

     22  H    Isotropic =    17.7815   Anisotropy =    14.6327

     23  H    Isotropic =    19.1178   Anisotropy =    13.3721

     24  H    Isotropic =    15.4074   Anisotropy =    16.0792

     25  C    Isotropic =   115.3054   Anisotropy =   111.3959

     26  C    Isotropic =   184.5394   Anisotropy =   421.0056

     27  C    Isotropic =    96.7136   Anisotropy =   350.3543

     28  C    Isotropic =   -23.7696   Anisotropy =   104.0650

     29  H    Isotropic =    22.1921   Anisotropy =    16.3604

     30  C    Isotropic =    -8.1517   Anisotropy =    65.2690

     31  H    Isotropic =    20.9389   Anisotropy =    13.3883

     32  C    Isotropic =   -27.4282   Anisotropy =    68.7280

     33  H    Isotropic =    16.8696   Anisotropy =    15.7238

     34  H    Isotropic =    17.5971   Anisotropy =    14.8482

     35  H    Isotropic =    13.1135   Anisotropy =    18.6869

     36  Sn   Isotropic =  1864.8054   Anisotropy =   618.1656

     37  P    Isotropic =   260.1224   Anisotropy =    75.7132

     38  C    Isotropic =    35.0497   Anisotropy =   200.0707

     39  C    Isotropic =    40.4966   Anisotropy =   174.3505

     40  C    Isotropic =    42.0267   Anisotropy =   182.1957

     41  C    Isotropic =    54.2047   Anisotropy =   189.5938

     42  H    Isotropic =    25.2062   Anisotropy =    16.0478

     43  C    Isotropic =    63.0595   Anisotropy =   205.6784

     44  H    Isotropic =    25.5825   Anisotropy =    16.6899

     45  C    Isotropic =    36.0184   Anisotropy =   155.4212

     46  H    Isotropic =    24.2328   Anisotropy =     8.2904

     47  H    Isotropic =    25.0854   Anisotropy =     7.1851

     48  H    Isotropic =    25.1707   Anisotropy =     1.6993

     49  C    Isotropic =    53.5703   Anisotropy =   159.6630

     50  C    Isotropic =    61.8632   Anisotropy =   218.8223

     51  C    Isotropic =    42.6244   Anisotropy =   205.1677

     52  C    Isotropic =    18.2522   Anisotropy =   146.6930

     53  H    Isotropic =    22.5638   Anisotropy =    11.6800

     54  C    Isotropic =     7.0779   Anisotropy =   125.8198

     55  H    Isotropic =    22.9825   Anisotropy =    13.4179

     56  C    Isotropic =    38.0938   Anisotropy =   285.2068

     57  H    Isotropic =    17.5085   Anisotropy =    13.3034

     58  H    Isotropic =    21.2513   Anisotropy =    11.5048

     59  H    Isotropic =    16.6038   Anisotropy =    14.8799

     60  C    Isotropic =    49.6955   Anisotropy =   162.6839

     61  C    Isotropic =    70.1666   Anisotropy =   241.4315

     62  C    Isotropic =    41.8804   Anisotropy =   192.3353

     63  C    Isotropic =    11.0982   Anisotropy =   118.9706

     64  H    Isotropic =    22.7146   Anisotropy =    10.8110

     65  C    Isotropic =    12.3508   Anisotropy =   134.5924

     66  H    Isotropic =    23.2581   Anisotropy =    13.4642

     67  C    Isotropic =    38.7340   Anisotropy =   287.8105

     68  H    Isotropic =    18.2582   Anisotropy =    11.9809

     69  H    Isotropic =    21.0512   Anisotropy =    11.7984

     70  H    Isotropic =    16.9234   Anisotropy =    14.4181

     71  Br   Isotropic =  2211.5274   Anisotropy =   377.1057

     72  Br   Isotropic =  2454.2778   Anisotropy =   471.7429

     73  Br   Isotropic =  2296.6354   Anisotropy =   557.5830

     74  C    Isotropic =   145.4882   Anisotropy =    25.1174

     75  H    Isotropic =    32.8912   Anisotropy =     7.3933

     76  H    Isotropic =    32.3312   Anisotropy =     9.1440

     77  C    Isotropic =   153.9195   Anisotropy =    30.6526

     78  H    Isotropic =    31.8527   Anisotropy =     9.5798

     79  H    Isotropic =    30.2270   Anisotropy =     9.4462

     80  C    Isotropic =   158.2546   Anisotropy =    19.9792

     81  H    Isotropic =    29.4015   Anisotropy =    15.6398

     82  H    Isotropic =    31.2756   Anisotropy =     6.6397

     83  C    Isotropic =   167.5541   Anisotropy =    35.3153

     84  H    Isotropic =    30.9829   Anisotropy =     8.9988

     85  H    Isotropic =    30.8523   Anisotropy =    12.0430

     86  H    Isotropic =    31.2650   Anisotropy =    11.2549

 The electronic state is 1-A.
 Alpha  occ. eigenvalues -- ********************-478.59610-478.59502-478.56469
 Alpha  occ. eigenvalues -- -427.54625-414.87682-414.87608-414.87364-149.63267
 Alpha  occ. eigenvalues -- -141.91079-141.91062-141.90947 -99.92696 -92.08551
 Alpha  occ. eigenvalues --  -92.08448 -92.08064 -79.04427 -79.04316 -79.04109
 Alpha  occ. eigenvalues --  -79.04045 -79.03992 -76.31985 -76.31936 -61.51450
 Alpha  occ. eigenvalues --  -61.51347 -61.48341 -55.69875 -55.69771 -55.69673
 Alpha  occ. eigenvalues --  -55.69656 -55.69572 -55.69551 -55.66747 -55.66569
 Alpha  occ. eigenvalues --  -55.66540 -28.79790 -25.14493 -25.14436 -25.14088
 Alpha  occ. eigenvalues --  -20.84160 -17.69366 -17.69361 -17.69133 -17.69093
 Alpha  occ. eigenvalues --  -17.69026 -17.41005 -17.40805 -17.39985 -11.59383
 Alpha  occ. eigenvalues --  -11.58988 -11.58555 -11.58422 -11.58310  -9.93588
 Alpha  occ. eigenvalues --   -9.93480  -9.93394  -9.93121  -9.93067  -9.92296
 Alpha  occ. eigenvalues --   -9.91881  -9.91844  -9.91703  -9.91316  -9.91310
 Alpha  occ. eigenvalues --   -9.91265  -9.91036  -9.90952  -9.90902  -9.90863
 Alpha  occ. eigenvalues --   -9.90822  -9.90805  -9.90801  -9.90762  -9.90749
 Alpha  occ. eigenvalues --   -9.90733  -9.90672  -9.90669  -9.90499  -9.90441
 Alpha  occ. eigenvalues --   -9.90401  -9.90306  -9.90232  -9.90175  -9.90136
 Alpha  occ. eigenvalues --   -9.90109  -9.90032  -9.89972  -9.89800  -9.89797
 Alpha  occ. eigenvalues --   -9.89087  -9.88906  -9.88172  -9.87301  -8.34296
 Alpha  occ. eigenvalues --   -8.34196  -8.31279  -6.34990  -6.34978  -6.25008
 Alpha  occ. eigenvalues --   -6.24906  -6.24416  -6.24371  -6.24323  -6.24268
 Alpha  occ. eigenvalues --   -6.21961  -6.21429  -6.21352  -4.57531  -4.57522
 Alpha  occ. eigenvalues --   -4.57516  -4.57497  -4.57236  -4.57218  -4.48697
 Alpha  occ. eigenvalues --   -3.22291  -3.22207  -3.21535  -3.14246  -3.14221
 Alpha  occ. eigenvalues --   -3.13756  -3.13474  -3.13337  -3.13215  -3.13177
 Alpha  occ. eigenvalues --   -2.87021  -2.45986  -2.45885  -2.45839  -2.45807
 Alpha  occ. eigenvalues --   -2.45743  -2.45704  -2.45368  -2.45368  -2.45272
 Alpha  occ. eigenvalues --   -2.45271  -2.42943  -2.42821  -2.42766  -2.42373
 Alpha  occ. eigenvalues --   -2.42372  -1.82202  -1.81602  -1.79343  -1.01423
 Alpha  occ. eigenvalues --   -1.01282  -1.00809  -1.00721  -1.00676  -0.80322
 Alpha  occ. eigenvalues --   -0.80033  -0.79605  -0.79063  -0.79045  -0.78863
 Alpha  occ. eigenvalues --   -0.72193  -0.71896  -0.71828  -0.69507  -0.69433
 Alpha  occ. eigenvalues --   -0.69129  -0.69050  -0.68851  -0.68716  -0.68677
 Alpha  occ. eigenvalues --   -0.68579  -0.68331  -0.68319  -0.67585  -0.66818
 Alpha  occ. eigenvalues --   -0.64979  -0.64215  -0.61337  -0.60918  -0.56633
 Alpha  occ. eigenvalues --   -0.56300  -0.56233  -0.56165  -0.55805  -0.55759
 Alpha  occ. eigenvalues --   -0.55353  -0.55184  -0.55062  -0.54762  -0.54731
 Alpha  occ. eigenvalues --   -0.52424  -0.51894  -0.51226  -0.48109  -0.48022
 Alpha  occ. eigenvalues --   -0.47672  -0.47531  -0.46231  -0.45657  -0.42811
 Alpha  occ. eigenvalues --   -0.42282  -0.42155  -0.42020  -0.41942  -0.41870
 Alpha  occ. eigenvalues --   -0.41730  -0.41511  -0.41045  -0.40959  -0.40781
 Alpha  occ. eigenvalues --   -0.40697  -0.40238  -0.39914  -0.39232  -0.38842
 Alpha  occ. eigenvalues --   -0.38596  -0.38510  -0.38497  -0.38378  -0.38214
 Alpha  occ. eigenvalues --   -0.38086  -0.37970  -0.37550  -0.37527  -0.37339
 Alpha  occ. eigenvalues --   -0.36894  -0.35305  -0.34968  -0.34747  -0.34507
 Alpha  occ. eigenvalues --   -0.34237  -0.34099  -0.33761  -0.33409  -0.32645
 Alpha  occ. eigenvalues --   -0.32394  -0.32064  -0.31883  -0.31639  -0.31304
 Alpha  occ. eigenvalues --   -0.31238  -0.31188  -0.31105  -0.30976  -0.30477
 Alpha  occ. eigenvalues --   -0.30279  -0.29971  -0.29967  -0.29681  -0.28857
 Alpha  occ. eigenvalues --   -0.28674  -0.28359  -0.28031  -0.27348  -0.26956
 Alpha  occ. eigenvalues --   -0.26333  -0.25830  -0.25469  -0.25351  -0.25069
 Alpha  occ. eigenvalues --   -0.24958  -0.24789  -0.24769  -0.24588  -0.24404
 Alpha  occ. eigenvalues --   -0.24342  -0.24210  -0.23952  -0.23852  -0.23632
 Alpha  occ. eigenvalues --   -0.22986  -0.22587  -0.22267  -0.21276  -0.20826
 Alpha  occ. eigenvalues --   -0.20780
 Alpha virt. eigenvalues --   -0.11170  -0.08477  -0.07502  -0.06996  -0.06790
 Alpha virt. eigenvalues --   -0.06556  -0.06525  -0.06222  -0.05973  -0.05840
 Alpha virt. eigenvalues --   -0.05760  -0.04979  -0.04748  -0.04249  -0.03743

 Mulliken charges:
               1
     1  Pt  -0.107236
     2  P    1.033518
     3  C   -0.779650
     4  C    0.203236
     5  C    0.375738
     6  C   -0.123897
     7  H    0.092155
     8  C   -0.078580
     9  H    0.111472
    10  C   -0.481738
    11  H    0.140662
    12  H    0.137883
    13  H    0.152972
    14  C   -0.635341
    15  C    0.160309
    16  C    0.466323
    17  C   -0.254834
    18  H    0.096812
    19  C   -0.006192
    20  H    0.087519
    21  C   -0.530760
    22  H    0.144650
    23  H    0.145330
    24  H    0.153978
    25  C   -0.666697
    26  C    0.296632
    27  C    0.232890
    28  C    0.077388
    29  H    0.104167
    30  C   -0.282434
    31  H    0.121239
    32  C   -0.602254
    33  H    0.146073
    34  H    0.143963
    35  H    0.153340
    36  Sn  -0.488890
    37  P    1.705513
    38  C   -1.019563
    39  C    0.473307
    40  C    0.315246
    41  C   -0.099709
    42  H    0.106849
    43  C   -0.143566
    44  H    0.109104
    45  C   -0.527669
    46  H    0.148069
    47  H    0.147249
    48  H    0.152939
    49  C   -0.860648
    50  C    0.302771
    51  C    0.303852
    52  C   -0.028022
    53  H    0.089376
    54  C   -0.098009
    55  H    0.072230
    56  C   -0.576864
    57  H    0.146048
    58  H    0.139613
    59  H    0.147861
    60  C   -0.601668
    61  C    0.001602
    62  C    0.397926
    63  C   -0.093244
    64  H    0.072760
    65  C   -0.025648
    66  H    0.064701
    67  C   -0.506986
    68  H    0.144373
    69  H    0.137691
    70  H    0.145406
    71  Br  -0.403375
    72  Br  -0.180419
    73  Br  -0.158744
    74  C   -0.028859
    75  H    0.053627
    76  H    0.060889
    77  C   -0.143642
    78  H    0.109393
    79  H    0.099542
    80  C   -0.176991
    81  H    0.092862
    82  H    0.099486
    83  C   -0.332186
    84  H    0.137262
    85  H    0.144615
    86  H    0.143903
 Sum of Mulliken charges =   0.00000

 Dipole moment (field-independent basis, Debye):
    X=              4.9181    Y=             -2.2171    Z=             -0.6693  Tot=              5.4361
 Quadrupole moment (field-independent basis, Debye-Ang):
   XX=           -305.5743   YY=           -392.6244   ZZ=           -330.5950
   XY=              3.3526   XZ=              1.2812   YZ=              7.4016

 Normal termination of Gaussian 09 at Sun Dec  1 23:00:25 2019.
