 Gaussian 09, Revision D.01,
 Gaussian 09:  EM64L-G09RevD.01 24-Apr-2013

 ----------------------------------------------------------------------
 #PBEPBE/gen scf=(maxcycle=500,conver=4) NMR=GIAO Scrf=(solvent=Dichlor
 omethane)
 ----------------------------------------------------------------------

 ------------
 estrutura 86
 ------------
 Symbolic Z-matrix:
 Charge =  0 Multiplicity = 1

                         Standard orientation:
 ---------------------------------------------------------------------
 Center     Atomic      Atomic             Coordinates (Angstroms)
 Number     Number       Type             X           Y           Z
 ---------------------------------------------------------------------
      1         78           0        0.246254   -0.425512   -0.138235
      2          6           0        0.253583   -2.474989   -0.510763
      3          6           0        0.166494   -2.936953   -1.841951
      4          6           0        0.375344   -3.453177    0.494011
      5          6           0        0.247419   -4.298528   -2.157948
      6          1           0        0.023959   -2.224422   -2.660197
      7          6           0        0.452225   -4.817923    0.187743
      8          1           0        0.416098   -3.153675    1.543760
      9          6           0        0.400796   -5.249434   -1.142005
     10          1           0        0.185207   -4.615685   -3.203478
     11          1           0        0.553362   -5.547009    0.997918
     12          1           0        0.465058   -6.314361   -1.384209
     13         15           0        2.708019   -0.635147    0.102276
     14         15           0        0.129429    2.025599   -0.034381
     15          6           0        3.594661   -1.167528   -1.429538
     16          6           0        4.963248   -1.499466   -1.411039
     17          6           0        2.920002   -1.152463   -2.658190
     18          6           0        5.622999   -1.853014   -2.589654
     19          1           0        5.526766   -1.469866   -0.477267
     20          6           0        3.585754   -1.490259   -3.841982
     21          1           0        1.871149   -0.859236   -2.687948
     22          6           0        4.933007   -1.853890   -3.808617
     23          1           0        6.680931   -2.122796   -2.558197
     24          1           0        3.047490   -1.465506   -4.792164
     25          1           0        5.452762   -2.127055   -4.730888
     26          6           0        3.040462   -1.924449    1.391017
     27          6           0        2.478931   -1.732633    2.668568
     28          6           0        3.764924   -3.101477    1.151973
     29          6           0        2.676679   -2.664683    3.689646
     30          1           0        1.860498   -0.856108    2.869900
     31          6           0        3.956934   -4.039091    2.173189
     32          1           0        4.167531   -3.314756    0.161725
     33          6           0        3.423759   -3.821719    3.446246
     34          1           0        2.235049   -2.489485    4.673893
     35          1           0        4.522927   -4.950660    1.964274
     36          1           0        3.577006   -4.555665    4.242303
     37          6           0        3.821210    0.767828    0.626425
     38          6           0        4.305979    1.641207   -0.364172
     39          6           0        4.223400    0.975708    1.956774
     40          6           0        5.179892    2.679626   -0.035624
     41          1           0        4.018379    1.503461   -1.408354
     42          6           0        5.093907    2.018633    2.283570
     43          1           0        3.883106    0.312466    2.750942
     44          6           0        5.579402    2.872840    1.290231
     45          1           0        5.551232    3.338528   -0.825339
     46          1           0        5.399303    2.155554    3.324732
     47          1           0        6.270751    3.679672    1.546093
     48          6           0       -1.507269    2.892894   -0.230936
     49          6           0       -1.863645    3.616188   -1.378930
     50          6           0       -2.408096    2.850682    0.847572
     51          6           0       -3.090948    4.284539   -1.443602
     52          1           0       -1.183568    3.672835   -2.229326
     53          6           0       -3.632180    3.518032    0.780131
     54          1           0       -2.152430    2.303256    1.756118
     55          6           0       -3.978143    4.239731   -0.366520
     56          1           0       -3.350216    4.846941   -2.343661
     57          1           0       -4.316889    3.473146    1.629811
     58          1           0       -4.934663    4.765854   -0.417543
     59          6           0        1.106224    2.722567   -1.443399
     60          6           0        1.994049    3.804717   -1.348006
     61          6           0        0.917145    2.116066   -2.700848
     62          6           0        2.662871    4.276631   -2.482819
     63          1           0        2.188701    4.279782   -0.386436
     64          6           0        1.579787    2.592895   -3.834684
     65          1           0        0.243984    1.261858   -2.794389
     66          6           0        2.456356    3.677364   -3.728162
     67          1           0        3.355072    5.116073   -2.386925
     68          1           0        1.413866    2.111712   -4.801777
     69          1           0        2.979198    4.049115   -4.612594
     70          6           0        0.687395    2.840204    1.527981
     71          6           0        0.716607    4.240901    1.679002
     72          6           0        0.968866    2.036141    2.642037
     73          6           0        1.068790    4.813381    2.902436
     74          1           0        0.441899    4.893200    0.847231
     75          6           0        1.300123    2.609418    3.874547
     76          1           0        0.902703    0.950849    2.544409
     77          6           0        1.363053    3.998383    4.003241
     78          1           0        1.099604    5.901416    3.000904
     79          1           0        1.505773    1.966117    4.734119
     80          1           0        1.626423    4.449261    4.962837
     81         50           0       -2.390990   -0.768962   -0.019675
     82          6           0       -3.268627   -0.353267    1.954390
     83          6           0       -4.534621    0.229699    2.135769
     84          6           0       -2.546950   -0.741619    3.097449
     85          6           0       -5.065547    0.415728    3.418597
     86          1           0       -5.121013    0.554592    1.272511
     87          6           0       -3.073782   -0.559259    4.382454
     88          1           0       -1.557817   -1.199592    2.992484
     89          6           0       -4.336305    0.020651    4.545548
     90          1           0       -6.053191    0.870749    3.537350
     91          1           0       -2.497606   -0.872540    5.258030
     92          1           0       -4.751041    0.163270    5.547113
     93         35           0       -3.343796   -3.239893   -0.106283
     94          6           0       -3.691823   -0.034699   -1.630051
     95          6           0       -5.092550   -0.157045   -1.573963
     96          6           0       -3.121463    0.501993   -2.796124
     97          6           0       -5.896403    0.262560   -2.640744
     98          1           0       -5.573878   -0.601468   -0.698829
     99          6           0       -3.920352    0.911919   -3.872159
    100          1           0       -2.035119    0.601281   -2.878866
    101          6           0       -5.311749    0.797284   -3.794045
    102          1           0       -6.983874    0.164447   -2.573751
    103          1           0       -3.453329    1.320815   -4.772579
    104          1           0       -5.939312    1.118081   -4.630581
 ---------------------------------------------------------------------

 SCF Done:  E(RPBE-PBE) =  -28424.8713874     A.U. after   23 cycles

      1  Pt   Isotropic =  2987.1447   Anisotropy =  1817.9199

      2  C    Isotropic =     4.9671   Anisotropy =   192.5255

      3  C    Isotropic =    35.1630   Anisotropy =   163.9496

      4  C    Isotropic =    35.0970   Anisotropy =   175.0967

      5  C    Isotropic =    50.7053   Anisotropy =   164.6927

      6  H    Isotropic =    23.3042   Anisotropy =    13.7314

      7  C    Isotropic =    51.3086   Anisotropy =   174.8903

      8  H    Isotropic =    24.7085   Anisotropy =     8.6222

      9  C    Isotropic =    55.4065   Anisotropy =   164.8521

     10  H    Isotropic =    24.4342   Anisotropy =     5.7238

     11  H    Isotropic =    24.8157   Anisotropy =     6.2893

     12  H    Isotropic =    24.8008   Anisotropy =     2.9317

     13  P    Isotropic =   278.4156   Anisotropy =    54.6907

     14  P    Isotropic =   272.2710   Anisotropy =    74.0468

     15  C    Isotropic =    42.3860   Anisotropy =   160.9168

     16  C    Isotropic =    41.1702   Anisotropy =   185.0990

     17  C    Isotropic =    37.2098   Anisotropy =   183.2847

     18  C    Isotropic =    48.1926   Anisotropy =   176.1403

     19  H    Isotropic =    24.3968   Anisotropy =    12.6301

     20  C    Isotropic =    50.3676   Anisotropy =   179.1786

     21  H    Isotropic =    22.5027   Anisotropy =    13.2545

     22  C    Isotropic =    49.2834   Anisotropy =   184.6492

     23  H    Isotropic =    23.9181   Anisotropy =     6.1292

     24  H    Isotropic =    23.6370   Anisotropy =     8.6942

     25  H    Isotropic =    23.7186   Anisotropy =     4.3943

     26  C    Isotropic =    42.3002   Anisotropy =   178.7074

     27  C    Isotropic =    45.5736   Anisotropy =   181.9059

     28  C    Isotropic =    47.0429   Anisotropy =   190.5841

     29  C    Isotropic =    50.7191   Anisotropy =   182.7106

     30  H    Isotropic =    22.2669   Anisotropy =    11.7587

     31  C    Isotropic =    50.0632   Anisotropy =   183.5302

     32  H    Isotropic =    24.2306   Anisotropy =    11.4844

     33  C    Isotropic =    49.6869   Anisotropy =   188.6091

     34  H    Isotropic =    23.0698   Anisotropy =     7.3628

     35  H    Isotropic =    23.8913   Anisotropy =     5.9341

     36  H    Isotropic =    23.5662   Anisotropy =     3.5230

     37  C    Isotropic =    37.2194   Anisotropy =   176.9718

     38  C    Isotropic =    41.5513   Anisotropy =   190.3005

     39  C    Isotropic =    48.2879   Anisotropy =   189.5146

     40  C    Isotropic =    48.2909   Anisotropy =   179.3223

     41  H    Isotropic =    26.2659   Anisotropy =     8.6267

     42  C    Isotropic =    52.1584   Anisotropy =   182.1755

     43  H    Isotropic =    23.5716   Anisotropy =    11.3080

     44  C    Isotropic =    47.3955   Anisotropy =   180.6037

     45  H    Isotropic =    24.6621   Anisotropy =     6.8671

     46  H    Isotropic =    24.4222   Anisotropy =     6.5171

     47  H    Isotropic =    24.4145   Anisotropy =     2.7140

     48  C    Isotropic =    30.3611   Anisotropy =   184.4360

     49  C    Isotropic =    49.6342   Anisotropy =   185.8386

     50  C    Isotropic =    44.7513   Anisotropy =   189.2911

     51  C    Isotropic =    52.8445   Anisotropy =   182.2694

     52  H    Isotropic =    24.4699   Anisotropy =    13.1107

     53  C    Isotropic =    47.6850   Anisotropy =   184.6178

     54  H    Isotropic =    25.3801   Anisotropy =     9.5786

     55  C    Isotropic =    49.4272   Anisotropy =   183.2130

     56  H    Isotropic =    24.5725   Anisotropy =     5.9784

     57  H    Isotropic =    24.6649   Anisotropy =     7.1168

     58  H    Isotropic =    24.5641   Anisotropy =     2.8837

     59  C    Isotropic =    43.0692   Anisotropy =   177.2541

     60  C    Isotropic =    45.4506   Anisotropy =   190.8330

     61  C    Isotropic =    41.1098   Anisotropy =   178.6153

     62  C    Isotropic =    47.4343   Anisotropy =   184.8768

     63  H    Isotropic =    23.9459   Anisotropy =     9.8000

     64  C    Isotropic =    49.0862   Anisotropy =   181.2612

     65  H    Isotropic =    22.0936   Anisotropy =    13.9283

     66  C    Isotropic =    46.0073   Anisotropy =   186.0889

     67  H    Isotropic =    23.7024   Anisotropy =     5.2880

     68  H    Isotropic =    23.1966   Anisotropy =     7.5703

     69  H    Isotropic =    23.5779   Anisotropy =     3.7986

     70  C    Isotropic =    42.8086   Anisotropy =   171.9768

     71  C    Isotropic =    42.9784   Anisotropy =   187.1928

     72  C    Isotropic =    40.4355   Anisotropy =   173.6428

     73  C    Isotropic =    49.7608   Anisotropy =   183.9692

     74  H    Isotropic =    24.3554   Anisotropy =    11.5969

     75  C    Isotropic =    49.2842   Anisotropy =   182.0355

     76  H    Isotropic =    22.3867   Anisotropy =    12.6041

     77  C    Isotropic =    46.9751   Anisotropy =   185.4988

     78  H    Isotropic =    24.1222   Anisotropy =     5.5766

     79  H    Isotropic =    23.5267   Anisotropy =     8.1510

     80  H    Isotropic =    23.8953   Anisotropy =     4.0922

     81  Sn   Isotropic =  2059.7999   Anisotropy =   764.9936

     82  C    Isotropic =    25.5797   Anisotropy =   222.1688

     83  C    Isotropic =    43.3201   Anisotropy =   181.5980

     84  C    Isotropic =    40.5625   Anisotropy =   174.9176

     85  C    Isotropic =    49.6298   Anisotropy =   177.8220

     86  H    Isotropic =    23.4687   Anisotropy =    11.4572

     87  C    Isotropic =    48.8656   Anisotropy =   178.4178

     88  H    Isotropic =    22.9970   Anisotropy =    13.3237

     89  C    Isotropic =    46.6766   Anisotropy =   172.5018

     90  H    Isotropic =    23.8392   Anisotropy =     5.6974

     91  H    Isotropic =    23.7068   Anisotropy =     7.8126

     92  H    Isotropic =    23.9441   Anisotropy =     4.0556

     93  Br   Isotropic =  2533.2238   Anisotropy =   388.7911

     94  C    Isotropic =    30.2881   Anisotropy =   211.9975

     95  C    Isotropic =    40.6203   Anisotropy =   178.0786

     96  C    Isotropic =    39.4288   Anisotropy =   176.2350

     97  C    Isotropic =    48.3213   Anisotropy =   174.6140

     98  H    Isotropic =    23.6357   Anisotropy =    13.3217

     99  C    Isotropic =    49.8375   Anisotropy =   175.9193

    100  H    Isotropic =    23.2999   Anisotropy =    12.4549

    101  C    Isotropic =    51.7574   Anisotropy =   185.0773

    102  H    Isotropic =    23.8951   Anisotropy =     5.9952

    103  H    Isotropic =    23.8484   Anisotropy =     8.4635

    104  H    Isotropic =    23.8844   Anisotropy =     4.3940

 The electronic state is 1-A.
 Alpha  occ. eigenvalues -- ********************-478.57161-427.52263-414.85326
 Alpha  occ. eigenvalues -- -414.85243-414.85035-149.60800-141.88644-141.88536
 Alpha  occ. eigenvalues -- -141.88527 -99.90303 -92.06168 -92.05991 -92.05734
 Alpha  occ. eigenvalues --  -79.02012 -79.01896 -79.01751 -79.01663 -79.01635
 Alpha  occ. eigenvalues --  -76.30772 -76.30750 -61.49009 -55.67425 -55.67230
 Alpha  occ. eigenvalues --  -55.67224 -28.77204 -25.11982 -25.11658 -25.11635
 Alpha  occ. eigenvalues --  -20.81774 -17.66780 -17.66716 -17.66697 -17.66485
 Alpha  occ. eigenvalues --  -17.66479 -17.38628 -17.38287 -17.37727 -11.56926
 Alpha  occ. eigenvalues --  -11.56529 -11.56221 -11.56061 -11.56001  -9.92435
 Alpha  occ. eigenvalues --   -9.92312  -9.92243  -9.92139  -9.92025  -9.91870
 Alpha  occ. eigenvalues --   -9.91196  -9.91170  -9.91126  -9.90992  -9.90989
 Alpha  occ. eigenvalues --   -9.90970  -9.90833  -9.90818  -9.90791  -9.90752
 Alpha  occ. eigenvalues --   -9.90727  -9.90702  -9.90678  -9.90674  -9.90625
 Alpha  occ. eigenvalues --   -9.90558  -9.90530  -9.90483  -9.90473  -9.90458
 Alpha  occ. eigenvalues --   -9.90456  -9.90396  -9.90387  -9.90384  -9.90232
 Alpha  occ. eigenvalues --   -9.90203  -9.90174  -9.90153  -9.90130  -9.90085
 Alpha  occ. eigenvalues --   -9.89479  -9.89449  -9.89446  -9.89441  -9.89396
 Alpha  occ. eigenvalues --   -9.89383  -9.89365  -9.89342  -9.89335  -9.89291
 Alpha  occ. eigenvalues --   -9.89194  -9.89162  -9.88965  -9.88323  -9.88210
 Alpha  occ. eigenvalues --   -9.88125  -9.88061  -9.87759  -8.31858  -6.33693
 Alpha  occ. eigenvalues --   -6.33656  -6.22545  -6.21977  -6.21961  -4.56277
 Alpha  occ. eigenvalues --   -4.56253  -4.56233  -4.56214  -4.55870  -4.55847
 Alpha  occ. eigenvalues --   -4.45950  -3.19675  -3.19065  -3.19029  -3.11793
 Alpha  occ. eigenvalues --   -3.11731  -3.11385  -3.11093  -3.11012  -3.10887
 Alpha  occ. eigenvalues --   -3.10868  -2.84728  -2.43529  -2.43385  -2.43372
 Alpha  occ. eigenvalues --   -2.42953  -2.42952  -1.79778  -1.79274  -1.77316
 Alpha  occ. eigenvalues --   -0.98629  -0.98349  -0.98294  -0.98001  -0.97920
 Alpha  occ. eigenvalues --   -0.79923  -0.79719  -0.79210  -0.78966  -0.78737
 Alpha  occ. eigenvalues --   -0.78680  -0.77412  -0.77325  -0.76111  -0.71692
 Alpha  occ. eigenvalues --   -0.71509  -0.69167  -0.69140  -0.68941  -0.68833
 Alpha  occ. eigenvalues --   -0.68778  -0.68547  -0.68285  -0.68224  -0.68201
 Alpha  occ. eigenvalues --   -0.68154  -0.67319  -0.67232  -0.67044  -0.66624
 Alpha  occ. eigenvalues --   -0.66020  -0.65649  -0.64762  -0.60689  -0.60471
 Alpha  occ. eigenvalues --   -0.56318  -0.56108  -0.55915  -0.55724  -0.55422
 Alpha  occ. eigenvalues --   -0.55151  -0.54798  -0.54723  -0.54685  -0.54622
 Alpha  occ. eigenvalues --   -0.54126  -0.53832  -0.53441  -0.53016  -0.52805
 Alpha  occ. eigenvalues --   -0.52230  -0.51850  -0.51666  -0.47836  -0.47602
 Alpha  occ. eigenvalues --   -0.47467  -0.47446  -0.46785  -0.45864  -0.45784
 Alpha  occ. eigenvalues --   -0.45672  -0.44957  -0.42256  -0.42062  -0.41985
 Alpha  occ. eigenvalues --   -0.41840  -0.41533  -0.41310  -0.41166  -0.40969
 Alpha  occ. eigenvalues --   -0.40923  -0.40671  -0.40478  -0.40313  -0.40282
 Alpha  occ. eigenvalues --   -0.39809  -0.39639  -0.39390  -0.38976  -0.38887
 Alpha  occ. eigenvalues --   -0.38741  -0.38614  -0.38512  -0.38354  -0.38223
 Alpha  occ. eigenvalues --   -0.38174  -0.38049  -0.37892  -0.37609  -0.37157
 Alpha  occ. eigenvalues --   -0.37108  -0.36844  -0.36741  -0.35904  -0.35713
 Alpha  occ. eigenvalues --   -0.35305  -0.34661  -0.34457  -0.34273  -0.34200
 Alpha  occ. eigenvalues --   -0.34053  -0.33757  -0.33513  -0.33206  -0.32957
 Alpha  occ. eigenvalues --   -0.32854  -0.32690  -0.31998  -0.31777  -0.31528
 Alpha  occ. eigenvalues --   -0.31323  -0.31138  -0.30914  -0.30774  -0.30722
 Alpha  occ. eigenvalues --   -0.30422  -0.30216  -0.29882  -0.29761  -0.29678
 Alpha  occ. eigenvalues --   -0.29573  -0.29432  -0.28596  -0.27450  -0.26671
 Alpha  occ. eigenvalues --   -0.25922  -0.25733  -0.25299  -0.25116  -0.24976
 Alpha  occ. eigenvalues --   -0.24655  -0.24592  -0.24373  -0.24253  -0.24133
 Alpha  occ. eigenvalues --   -0.24018  -0.23896  -0.23791  -0.23425  -0.23322
 Alpha  occ. eigenvalues --   -0.23074  -0.22970  -0.22862  -0.22632  -0.22198
 Alpha  occ. eigenvalues --   -0.21898  -0.21609  -0.21300  -0.20719  -0.19700
 Alpha  occ. eigenvalues --   -0.18580
 Alpha virt. eigenvalues --   -0.07677  -0.07417  -0.07264  -0.06872  -0.06519
 Alpha virt. eigenvalues --   -0.06339  -0.06092  -0.05955  -0.05861  -0.05578
 Alpha virt. eigenvalues --   -0.05437  -0.04693  -0.04535  -0.04352  -0.04300

 Mulliken charges:
               1
     1  Pt   0.501240
     2  C    0.168609
     3  C   -0.021339
     4  C   -0.110016
     5  C    0.005529
     6  H    0.053689
     7  C   -0.032945
     8  H    0.029470
     9  C   -0.690169
    10  H    0.130861
    11  H    0.126154
    12  H    0.146399
    13  P    1.266915
    14  P    1.087434
    15  C   -1.135582
    16  C    0.385551
    17  C    0.585144
    18  C   -0.010159
    19  H    0.092003
    20  C   -0.200996
    21  H    0.038703
    22  C   -0.662382
    23  H    0.141347
    24  H    0.133483
    25  H    0.156445
    26  C   -0.804396
    27  C    0.603633
    28  C    0.192473
    29  C    0.028309
    30  H    0.028468
    31  C   -0.165569
    32  H    0.078469
    33  C   -0.534115
    34  H    0.134052
    35  H    0.137060
    36  H    0.151644
    37  C   -1.116210
    38  C    0.513492
    39  C    0.300117
    40  C    0.059842
    41  H    0.058148
    42  C   -0.172844
    43  H    0.065013
    44  C   -0.568804
    45  H    0.119668
    46  H    0.131527
    47  H    0.142364
    48  C   -1.185936
    49  C    0.455890
    50  C    0.365166
    51  C   -0.159006
    52  H    0.071328
    53  C    0.023778
    54  H    0.073324
    55  C   -0.434902
    56  H    0.129336
    57  H    0.121642
    58  H    0.141491
    59  C   -0.841007
    60  C    0.372084
    61  C    0.442849
    62  C   -0.178682
    63  H    0.047564
    64  C    0.010775
    65  H    0.045079
    66  C   -0.534372
    67  H    0.125628
    68  H    0.132532
    69  H    0.146388
    70  C   -0.934808
    71  C    0.333761
    72  C    0.407030
    73  C    0.064005
    74  H    0.089266
    75  C   -0.198476
    76  H    0.044922
    77  C   -0.564433
    78  H    0.141871
    79  H    0.124654
    80  H    0.149987
    81  Sn  -0.179130
    82  C    0.051579
    83  C    0.022673
    84  C    0.142127
    85  C   -0.120084
    86  H    0.087809
    87  C   -0.110882
    88  H    0.090057
    89  C   -0.632406
    90  H    0.147352
    91  H    0.147222
    92  H    0.148380
    93  Br  -0.360072
    94  C    0.112426
    95  C    0.204822
    96  C   -0.089115
    97  C   -0.215796
    98  H    0.115553
    99  C   -0.091515
   100  H    0.068312
   101  C   -0.577145
   102  H    0.150165
   103  H    0.139658
   104  H    0.151553
 Sum of Mulliken charges =   0.00000

 Dipole moment (field-independent basis, Debye):
    X=             11.6494    Y=             11.2446    Z=              0.5872  Tot=             16.2017
 Quadrupole moment (field-independent basis, Debye-Ang):
   XX=           -399.2275   YY=           -408.5617   ZZ=           -362.8092
   XY=            -27.0817   XZ=             -3.2837   YZ=             -7.3119

 Normal termination of Gaussian 09 at Thu Sep 26 18:47:41 2019.
