 Gaussian 09, Revision D.01,
 Gaussian 09:  EM64L-G09RevD.01 24-Apr-2013

 ----------------------------------------------------------------------
 #PBEPBE/gen scf=(maxcycle=500,conver=4) NMR=GIAO Scrf=(solvent=Acetone
 )
 ----------------------------------------------------------------------

 -----------
 estrutura 2
 -----------
 Symbolic Z-matrix:
 Charge =  0 Multiplicity = 1

                         Standard orientation:
 ---------------------------------------------------------------------
 Center     Atomic      Atomic             Coordinates (Angstroms)
 Number     Number       Type             X           Y           Z
 ---------------------------------------------------------------------
      1         78           0       -0.030080   -0.128872   -0.085482
      2         50           0        2.649443   -0.046621   -0.059889
      3         15           0       -0.053284   -2.563257   -0.093148
      4         15           0        0.000741    2.316393   -0.030216
      5         17           0        3.975866   -1.434688   -1.547372
      6         17           0        3.644279   -0.481427    2.105279
      7         17           0        3.893136    1.990247   -0.520844
      8          6           0        1.514262   -3.556889   -0.190572
      9          1           0        2.096222   -3.159203   -1.033735
     10          1           0        1.162737   -4.553622   -0.502777
     11          6           0        2.384104   -3.674547    1.077667
     12          1           0        3.426246   -3.399982    0.856658
     13          1           0        2.056268   -3.025800    1.901127
     14          1           0        2.381890   -4.708638    1.455816
     15          6           0       -0.924670   -3.265549    1.393507
     16          1           0       -1.992975   -3.320959    1.136287
     17          1           0       -0.569515   -4.303517    1.500256
     18          6           0       -0.735374   -2.481559    2.697625
     19          1           0        0.324649   -2.349917    2.961804
     20          1           0       -1.184503   -1.478208    2.632340
     21          1           0       -1.224267   -3.013879    3.529522
     22          6           0       -0.966390   -3.209044   -1.572583
     23          1           0       -0.855761   -4.307015   -1.553476
     24          1           0       -2.035299   -3.001602   -1.412422
     25          6           0       -0.485104   -2.631019   -2.907145
     26          1           0       -1.039187   -3.095260   -3.737911
     27          1           0       -0.654164   -1.542919   -2.954130
     28          1           0        0.586844   -2.814277   -3.080500
     29          6           0       -1.637533    3.182327    0.092465
     30          1           0       -2.299395    2.660490   -0.613744
     31          1           0       -2.027310    2.965713    1.097927
     32          6           0       -1.708321    4.682916   -0.219754
     33          1           0       -1.532510    4.879798   -1.287399
     34          1           0       -2.723243    5.041994    0.014321
     35          1           0       -1.002749    5.291503    0.362307
     36          6           0        0.745677    2.986632   -1.603826
     37          1           0       -0.095323    2.982528   -2.319749
     38          1           0        1.459356    2.235285   -1.969006
     39          6           0        1.426237    4.359424   -1.557928
     40          1           0        1.830327    4.592848   -2.555425
     41          1           0        0.736809    5.167850   -1.278757
     42          1           0        2.274254    4.369585   -0.856657
     43          6           0        1.008554    2.856576    1.459281
     44          1           0        1.344931    1.925156    1.938368
     45          1           0        1.915865    3.348498    1.078546
     46          6           0        0.317749    3.725066    2.516149
     47          1           0        0.039753    4.716230    2.133060
     48          1           0       -0.586006    3.246189    2.924798
     49          1           0        1.012891    3.879779    3.355818
     50         50           0       -2.703071   -0.143174   -0.041137
     51         17           0       -4.105078   -2.134270   -0.075758
     52         17           0       -3.922946    1.023896   -1.783430
     53         17           0       -3.640916    0.810950    1.983111
 ---------------------------------------------------------------------

 SCF Done:  E(RPBE-PBE) =  -32988.5270202     A.U. after    8 cycles

      1  Pt   Isotropic =  3435.4075   Anisotropy =  1857.3777

      2  Sn   Isotropic =  2121.4321   Anisotropy =   768.8488

      3  P    Isotropic =   260.9753   Anisotropy =   112.1884

      4  P    Isotropic =   275.0317   Anisotropy =    68.0805

      5  Cl   Isotropic =   749.0925   Anisotropy =   350.4719

      6  Cl   Isotropic =   716.4459   Anisotropy =   339.2544

      7  Cl   Isotropic =   709.6608   Anisotropy =   319.0594

      8  C    Isotropic =   151.5522   Anisotropy =    34.8767

      9  H    Isotropic =    27.8077   Anisotropy =     7.8176

     10  H    Isotropic =    29.7865   Anisotropy =     9.2474

     11  C    Isotropic =   176.9591   Anisotropy =    14.8412

     12  H    Isotropic =    29.8536   Anisotropy =     6.5167

     13  H    Isotropic =    29.8969   Anisotropy =     2.2259

     14  H    Isotropic =    30.2397   Anisotropy =    12.7054

     15  C    Isotropic =   153.6022   Anisotropy =    31.1801

     16  H    Isotropic =    28.4262   Anisotropy =     8.5342

     17  H    Isotropic =    29.5362   Anisotropy =    10.3146

     18  C    Isotropic =   168.3362   Anisotropy =    22.0601

     19  H    Isotropic =    30.1876   Anisotropy =     5.9564

     20  H    Isotropic =    30.0438   Anisotropy =     7.1908

     21  H    Isotropic =    30.0717   Anisotropy =    13.5928

     22  C    Isotropic =   144.5662   Anisotropy =    35.3102

     23  H    Isotropic =    29.4771   Anisotropy =    10.8167

     24  H    Isotropic =    28.0905   Anisotropy =    10.5090

     25  C    Isotropic =   171.5634   Anisotropy =    18.4027

     26  H    Isotropic =    30.1073   Anisotropy =    14.0354

     27  H    Isotropic =    30.5228   Anisotropy =     6.5456

     28  H    Isotropic =    30.4510   Anisotropy =     7.8520

     29  C    Isotropic =   145.3094   Anisotropy =    29.6295

     30  H    Isotropic =    27.9354   Anisotropy =    15.6175

     31  H    Isotropic =    28.1251   Anisotropy =     6.9695

     32  C    Isotropic =   165.8968   Anisotropy =    25.8465

     33  H    Isotropic =    29.8360   Anisotropy =     8.5306

     34  H    Isotropic =    29.7363   Anisotropy =    12.6600

     35  H    Isotropic =    30.2271   Anisotropy =     8.1751

     36  C    Isotropic =   151.0350   Anisotropy =    33.0481

     37  H    Isotropic =    29.1393   Anisotropy =     6.2753

     38  H    Isotropic =    28.6110   Anisotropy =     7.1887

     39  C    Isotropic =   171.2180   Anisotropy =    24.3393

     40  H    Isotropic =    30.1198   Anisotropy =    13.1160

     41  H    Isotropic =    30.1480   Anisotropy =     9.1399

     42  H    Isotropic =    29.4174   Anisotropy =     5.2337

     43  C    Isotropic =   150.7513   Anisotropy =    33.3574

     44  H    Isotropic =    29.0784   Anisotropy =    10.9257

     45  H    Isotropic =    28.0544   Anisotropy =     5.6923

     46  C    Isotropic =   171.1786   Anisotropy =    23.0076

     47  H    Isotropic =    30.1494   Anisotropy =     9.8990

     48  H    Isotropic =    30.0597   Anisotropy =     6.5346

     49  H    Isotropic =    30.0067   Anisotropy =    13.0158

     50  Sn   Isotropic =  2119.7674   Anisotropy =   776.0310

     51  Cl   Isotropic =   714.8294   Anisotropy =   323.5816

     52  Cl   Isotropic =   743.7843   Anisotropy =   325.4905

     53  Cl   Isotropic =   725.2318   Anisotropy =   351.5061

 The electronic state is 1-A.
 Alpha  occ. eigenvalues -- ******************************-427.55271-414.88331
 Alpha  occ. eigenvalues -- -414.88265-414.87996-149.67067-149.66969-141.94883
 Alpha  occ. eigenvalues -- -141.94872-141.94807-141.94784-141.94773-141.94708
 Alpha  occ. eigenvalues -- -100.56882-100.56753-100.56736-100.56653-100.56582
 Alpha  occ. eigenvalues -- -100.56479 -99.93309 -92.09184 -92.09073 -92.08647
 Alpha  occ. eigenvalues --  -79.05061 -79.04960 -79.04714 -79.04662 -79.04589
 Alpha  occ. eigenvalues --  -76.31640 -76.31286 -28.83449 -28.83349 -25.18092
 Alpha  occ. eigenvalues --  -25.18063 -25.17992 -25.17963 -25.17855 -25.17755
 Alpha  occ. eigenvalues --  -20.84749 -17.72974 -17.72973 -17.72874 -17.72873
 Alpha  occ. eigenvalues --  -17.72832 -17.72815 -17.72777 -17.72732 -17.72716
 Alpha  occ. eigenvalues --  -17.72677 -17.41623 -17.41412 -17.40525 -11.59989
 Alpha  occ. eigenvalues --  -11.59631 -11.59107 -11.59023 -11.58853  -9.91654
 Alpha  occ. eigenvalues --   -9.91568  -9.91402  -9.91275  -9.91251  -9.91212
 Alpha  occ. eigenvalues --   -9.89456  -9.89379  -9.89358  -9.89324  -9.89210
 Alpha  occ. eigenvalues --   -9.89096  -9.14753  -9.14632  -9.14617  -9.14525
 Alpha  occ. eigenvalues --   -9.14457  -9.14369  -6.98545  -6.98424  -6.98406
 Alpha  occ. eigenvalues --   -6.98313  -6.98248  -6.98159  -6.97942  -6.97925
 Alpha  occ. eigenvalues --   -6.97821  -6.97802  -6.97801  -6.97795  -6.97718
 Alpha  occ. eigenvalues --   -6.97697  -6.97652  -6.97624  -6.97553  -6.97542
 Alpha  occ. eigenvalues --   -6.34573  -6.34278  -4.57093  -4.57075  -4.56888
 Alpha  occ. eigenvalues --   -4.56779  -4.56770  -4.56610  -4.52158  -4.52055
 Alpha  occ. eigenvalues --   -3.25624  -3.25554  -3.25521  -3.25453  -3.25198
 Alpha  occ. eigenvalues --   -3.25093  -3.14874  -3.14846  -3.14332  -3.14079
 Alpha  occ. eigenvalues --   -3.13876  -3.13801  -3.13731  -2.87633  -1.82702
 Alpha  occ. eigenvalues --   -1.82440  -1.79887  -1.04654  -1.04642  -1.04554
 Alpha  occ. eigenvalues --   -1.04545  -1.04291  -1.04212  -1.04185  -1.04153
 Alpha  occ. eigenvalues --   -1.04114  -1.04039  -0.74245  -0.74046  -0.73569
 Alpha  occ. eigenvalues --   -0.73344  -0.71923  -0.71836  -0.71769  -0.71599
 Alpha  occ. eigenvalues --   -0.70075  -0.69930  -0.69551  -0.69465  -0.62073
 Alpha  occ. eigenvalues --   -0.61847  -0.57417  -0.56966  -0.56897  -0.56137
 Alpha  occ. eigenvalues --   -0.50412  -0.49369  -0.44402  -0.43508  -0.43145
 Alpha  occ. eigenvalues --   -0.42839  -0.42313  -0.41705  -0.41381  -0.41160
 Alpha  occ. eigenvalues --   -0.40613  -0.38518  -0.38145  -0.37924  -0.37543
 Alpha  occ. eigenvalues --   -0.37137  -0.36260  -0.36063  -0.35528  -0.35099
 Alpha  occ. eigenvalues --   -0.34949  -0.34264  -0.34045  -0.33911  -0.33738
 Alpha  occ. eigenvalues --   -0.33532  -0.33417  -0.33290  -0.32731  -0.32653
 Alpha  occ. eigenvalues --   -0.32341  -0.31661  -0.31514  -0.31442  -0.30637
 Alpha  occ. eigenvalues --   -0.30166  -0.29875  -0.29422  -0.29229  -0.28675
 Alpha  occ. eigenvalues --   -0.28611  -0.28484  -0.28286  -0.28109  -0.27850
 Alpha  occ. eigenvalues --   -0.27747  -0.27473  -0.27226  -0.26900  -0.26781
 Alpha  occ. eigenvalues --   -0.26663  -0.26601  -0.26413  -0.24229  -0.23161
 Alpha  occ. eigenvalues --   -0.22824
 Alpha virt. eigenvalues --   -0.12764  -0.08325  -0.05991  -0.05454  -0.04790
 Alpha virt. eigenvalues --   -0.04028  -0.03163  -0.02465  -0.01397  -0.01162
 Alpha virt. eigenvalues --   -0.00937  -0.00550  -0.00479  -0.00189   0.00406

 Mulliken charges:
               1
     1  Pt   0.532932
     2  Sn   0.261407
     3  P   -0.007592
     4  P   -0.219748
     5  Cl  -0.195930
     6  Cl  -0.237103
     7  Cl  -0.189494
     8  C   -0.426995
     9  H    0.091585
    10  H    0.096089
    11  C   -0.108398
    12  H    0.105316
    13  H    0.069042
    14  H    0.120384
    15  C   -0.408328
    16  H    0.095947
    17  H    0.113957
    18  C    0.002522
    19  H    0.077100
    20  H    0.055047
    21  H    0.126150
    22  C   -0.316227
    23  H    0.106115
    24  H    0.084099
    25  C   -0.110467
    26  H    0.134693
    27  H    0.073827
    28  H    0.099918
    29  C   -0.289621
    30  H    0.055384
    31  H    0.086628
    32  C   -0.163023
    33  H    0.115961
    34  H    0.129920
    35  H    0.101533
    36  C   -0.297645
    37  H    0.094033
    38  H    0.096563
    39  C   -0.112760
    40  H    0.126101
    41  H    0.112167
    42  H    0.100184
    43  C   -0.228195
    44  H    0.067818
    45  H    0.091626
    46  C   -0.138308
    47  H    0.104396
    48  H    0.093777
    49  H    0.131070
    50  Sn   0.299177
    51  Cl  -0.160057
    52  Cl  -0.216379
    53  Cl  -0.226195
 Sum of Mulliken charges =   0.00000

 Dipole moment (field-independent basis, Debye):
    X=             -0.0916    Y=             -0.1370    Z=             -0.7141  Tot=              0.7329
 Quadrupole moment (field-independent basis, Debye-Ang):
   XX=           -353.1674   YY=           -223.8085   ZZ=           -269.6329
   XY=             -3.4790   XZ=              0.9980   YZ=              0.0670

 1\1\GINC-NEQC27\SP\RPBEPBE\Gen\C12H30Cl6P2Pt1Sn2\GUEST\04-Feb-2020\0\\
 #PBEPBE/gen scf=(maxcycle=500,conver=4) NMR=GIAO Scrf=(solvent=Acetone
 )\\estrutura 2\\0,1\Pt,0,-0.03008,-0.128872,-0.085482\Sn,0,2.649443,-0
 .046621,-0.059889\P,0,-0.053284,-2.563257,-0.093148\P,0,0.000741,2.316
 393,-0.030216\Cl,0,3.975866,-1.434688,-1.547372\Cl,0,3.644279,-0.48142
 7,2.105279\Cl,0,3.893136,1.990247,-0.520844\C,0,1.514262,-3.556889,-0.
 190572\H,0,2.096222,-3.159203,-1.033735\H,0,1.162736,-4.553622,-0.5027
 77\C,0,2.384104,-3.674547,1.077667\H,0,3.426246,-3.399982,0.856658\H,0

 Normal termination of Gaussian 09 at Tue Feb  4 10:26:34 2020.
