 Gaussian 09, Revision D.01,
 Gaussian 09:  EM64L-G09RevD.01 24-Apr-2013

 ----------------------------------------------------------------------
 #PBEPBE/gen scf=(maxcycle=1000,conver=4) NMR=GIAO Scrf=(solvent=Chloro
 form)
 ----------------------------------------------------------------------

 -----------
 estrutura 8
 -----------
 Symbolic Z-matrix:
 Charge =  0 Multiplicity = 1

                         Standard orientation:
 ---------------------------------------------------------------------
 Center     Atomic      Atomic             Coordinates (Angstroms)
 Number     Number       Type             X           Y           Z
 ---------------------------------------------------------------------
      1         78           0       -0.126789   -1.114348   -0.081758
      2         17           0        0.603614   -3.405921   -0.442248
      3         50           0       -2.424088   -2.507059   -0.105236
      4         17           0       -2.943350   -3.809423   -2.078160
      5         17           0       -4.650135   -1.582965    0.279545
      6         17           0       -2.518132   -4.170571    1.659833
      7         15           0        2.153573   -0.371637   -0.043773
      8         15           0       -1.219321    0.929136    0.131984
      9          6           0        2.695542    0.330098    1.560685
     10          6           0        1.839896    0.311348    2.677865
     11          6           0        4.017394    0.770710    1.746896
     12          6           0        2.275609    0.751655    3.923612
     13          1           0        0.821236   -0.066489    2.572933
     14          6           0        4.464175    1.227366    2.988228
     15          1           0        4.729776    0.743878    0.919770
     16          6           0        3.590480    1.224235    4.091183
     17          1           0        1.612623    0.729812    4.790585
     18          1           0        5.495193    1.566273    3.088195
     19          6           0        2.468237    0.816639   -1.402878
     20          6           0        1.995678    0.465200   -2.686746
     21          6           0        3.160099    2.025410   -1.260990
     22          6           0        2.232005    1.281575   -3.785128
     23          1           0        1.438043   -0.464745   -2.828659
     24          6           0        3.397816    2.859896   -2.358805
     25          1           0        3.516441    2.348291   -0.282385
     26          6           0        2.939657    2.489960   -3.633454
     27          1           0        1.872504    1.007354   -4.779232
     28          1           0        3.934543    3.795259   -2.203008
     29          6           0        3.393478   -1.707805   -0.284434
     30          6           0        3.608394   -2.618017    0.772670
     31          6           0        4.134387   -1.871120   -1.461288
     32          6           0        4.537371   -3.640385    0.657037
     33          1           0        3.043396   -2.523746    1.702649
     34          6           0        5.072374   -2.902630   -1.591912
     35          1           0        3.999131   -1.187533   -2.300812
     36          6           0        5.278614   -3.798484   -0.531634
     37          1           0        4.705441   -4.344864    1.474577
     38          1           0        5.631564   -2.992713   -2.523240
     39          6           0       -2.090094    1.092273    1.739865
     40          6           0       -2.172182    0.015380    2.643409
     41          6           0       -2.691375    2.308922    2.110935
     42          6           0       -2.841121    0.140147    3.854032
     43          1           0       -1.698452   -0.939251    2.405933
     44          6           0       -3.375373    2.445845    3.320739
     45          1           0       -2.624126    3.178349    1.453847
     46          6           0       -3.459443    1.355234    4.203758
     47          1           0       -2.904641   -0.699441    4.548433
     48          1           0       -3.831837    3.405271    3.565490
     49          6           0       -2.458744    1.036750   -1.222149
     50          6           0       -2.085160    0.608186   -2.513301
     51          6           0       -3.748375    1.552442   -1.042748
     52          6           0       -2.964205    0.710551   -3.583950
     53          1           0       -1.092215    0.186979   -2.682568
     54          6           0       -4.644792    1.654302   -2.110509
     55          1           0       -4.085907    1.864442   -0.053593
     56          6           0       -4.256610    1.237746   -3.394527
     57          1           0       -2.677539    0.376189   -4.582971
     58          1           0       -5.644202    2.045506   -1.924097
     59          6           0       -0.318655    2.534128   -0.002206
     60          6           0       -0.397024    3.324635   -1.157689
     61          6           0        0.421579    3.031874    1.090131
     62          6           0        0.234262    4.569976   -1.235534
     63          1           0       -0.970242    2.983711   -2.020303
     64          6           0        1.062371    4.262323    1.021399
     65          1           0        0.486894    2.463927    2.018232
     66          6           0        0.979215    5.045341   -0.145920
     67          1           0        0.136920    5.155189   -2.149386
     68          1           0        1.629282    4.648425    1.870945
     69          8           0        6.153409   -4.828080   -0.553951
     70          8           0       -5.041997    1.297289   -4.490017
     71          8           0        3.118794    3.220665   -4.755317
     72          8           0        3.925878    1.636197    5.330685
     73          8           0       -4.093495    1.381756    5.393109
     74          8           0        1.639722    6.224886   -0.124886
     75          6           0       -4.766639    2.558948    5.804863
     76          1           0       -5.213964    2.333656    6.781372
     77          1           0       -4.070550    3.408069    5.914857
     78          1           0       -5.566888    2.836240    5.097681
     79          6           0        1.483512    7.129446   -1.205605
     80          1           0        0.431274    7.446854   -1.313421
     81          1           0        2.101909    8.005099   -0.968614
     82          1           0        1.826691    6.695349   -2.161512
     83          6           0        3.815214    4.451593   -4.684182
     84          1           0        3.835964    4.856672   -5.703995
     85          1           0        3.301597    5.169835   -4.022244
     86          1           0        4.850936    4.313942   -4.329339
     87          6           0        6.950238   -5.041498   -1.705771
     88          1           0        7.567585   -5.924632   -1.496123
     89          1           0        6.332489   -5.238270   -2.599258
     90          1           0        7.610111   -4.179045   -1.906424
     91          6           0        5.245709    2.087783    5.587682
     92          1           0        5.491800    2.983557    4.991649
     93          1           0        5.282351    2.345455    6.653741
     94          1           0        5.990337    1.300025    5.381583
     95          6           0       -6.364724    1.792785   -4.377080
     96          1           0       -6.805002    1.731515   -5.380989
     97          1           0       -6.968221    1.185181   -3.681046
     98          1           0       -6.377240    2.844699   -4.042257
 ---------------------------------------------------------------------

 SCF Done:  E(RPBE-PBE) =  -27688.7091372     A.U. after   10 cycles

      1  Pt   Isotropic =  2960.0711   Anisotropy =  1703.2726

      2  Cl   Isotropic =   916.6946   Anisotropy =   548.5415

      3  Sn   Isotropic =  2204.3313   Anisotropy =   639.5653

      4  Cl   Isotropic =   781.4351   Anisotropy =   319.8717

      5  Cl   Isotropic =   761.8402   Anisotropy =   283.0901

      6  Cl   Isotropic =   765.6364   Anisotropy =   322.4601

      7  P    Isotropic =   245.8870   Anisotropy =    84.8801

      8  P    Isotropic =   241.7835   Anisotropy =   107.1225

      9  C    Isotropic =    64.3565   Anisotropy =   154.3276

     10  C    Isotropic =    41.0511   Anisotropy =   168.1569

     11  C    Isotropic =    47.0528   Anisotropy =   188.5896

     12  C    Isotropic =    58.7654   Anisotropy =   133.4293

     13  H    Isotropic =    22.3728   Anisotropy =    12.6218

     14  C    Isotropic =    70.3742   Anisotropy =   159.8893

     15  H    Isotropic =    23.7702   Anisotropy =    12.2467

     16  C    Isotropic =    14.1870   Anisotropy =   136.7828

     17  H    Isotropic =    24.1419   Anisotropy =     9.9957

     18  H    Isotropic =    24.6203   Anisotropy =     7.5746

     19  C    Isotropic =    57.5800   Anisotropy =   140.8954

     20  C    Isotropic =    42.2048   Anisotropy =   172.1487

     21  C    Isotropic =    49.1084   Anisotropy =   187.3678

     22  C    Isotropic =    62.9150   Anisotropy =   147.6983

     23  H    Isotropic =    23.1688   Anisotropy =    12.3219

     24  C    Isotropic =    77.0119   Anisotropy =   169.9470

     25  H    Isotropic =    24.5778   Anisotropy =     9.0213

     26  C    Isotropic =    19.7120   Anisotropy =   142.0537

     27  H    Isotropic =    24.2804   Anisotropy =     6.7869

     28  H    Isotropic =    25.2683   Anisotropy =     6.6910

     29  C    Isotropic =    59.1119   Anisotropy =   112.8955

     30  C    Isotropic =    58.2832   Anisotropy =   208.6613

     31  C    Isotropic =    54.9227   Anisotropy =   192.7797

     32  C    Isotropic =    57.8952   Anisotropy =   122.3669

     33  H    Isotropic =    23.7461   Anisotropy =    13.0994

     34  C    Isotropic =    64.0174   Anisotropy =   130.8712

     35  H    Isotropic =    23.8692   Anisotropy =    14.6552

     36  C    Isotropic =    12.8722   Anisotropy =   130.7710

     37  H    Isotropic =    23.1863   Anisotropy =     9.7871

     38  H    Isotropic =    23.6436   Anisotropy =    10.6804

     39  C    Isotropic =    67.1827   Anisotropy =   171.2130

     40  C    Isotropic =    39.2009   Anisotropy =   170.9487

     41  C    Isotropic =    47.7019   Anisotropy =   191.0322

     42  C    Isotropic =    53.2427   Anisotropy =   128.5622

     43  H    Isotropic =    21.8134   Anisotropy =    15.1930

     44  C    Isotropic =    68.1577   Anisotropy =   152.2528

     45  H    Isotropic =    23.9143   Anisotropy =    12.9490

     46  C    Isotropic =    12.3664   Anisotropy =   136.0023

     47  H    Isotropic =    23.2106   Anisotropy =    10.0227

     48  H    Isotropic =    24.1978   Anisotropy =     8.5606

     49  C    Isotropic =    57.4940   Anisotropy =   169.6463

     50  C    Isotropic =    44.8904   Anisotropy =   179.3308

     51  C    Isotropic =    51.5269   Anisotropy =   190.2735

     52  C    Isotropic =    53.0367   Anisotropy =   124.5565

     53  H    Isotropic =    22.9930   Anisotropy =    12.9574

     54  C    Isotropic =    71.5223   Anisotropy =   156.4041

     55  H    Isotropic =    23.9765   Anisotropy =    11.7353

     56  C    Isotropic =    13.9842   Anisotropy =   135.5007

     57  H    Isotropic =    23.4547   Anisotropy =     8.9614

     58  H    Isotropic =    24.5743   Anisotropy =     8.3667

     59  C    Isotropic =    41.7603   Anisotropy =   135.7967

     60  C    Isotropic =    42.6180   Anisotropy =   183.8995

     61  C    Isotropic =    40.1969   Anisotropy =   172.8351

     62  C    Isotropic =    73.2918   Anisotropy =   160.7953

     63  H    Isotropic =    25.3805   Anisotropy =    12.1099

     64  C    Isotropic =    64.1127   Anisotropy =   149.8860

     65  H    Isotropic =    25.0246   Anisotropy =     6.8370

     66  C    Isotropic =    19.0971   Anisotropy =   140.4646

     67  H    Isotropic =    25.5126   Anisotropy =     7.0776

     68  H    Isotropic =    25.4313   Anisotropy =     7.2670

     69  O    Isotropic =   173.5402   Anisotropy =   118.7606

     70  O    Isotropic =   197.2297   Anisotropy =   104.5185

     71  O    Isotropic =   202.5619   Anisotropy =   109.8270

     72  O    Isotropic =   197.3294   Anisotropy =   109.5400

     73  O    Isotropic =   193.8951   Anisotropy =   105.0946

     74  O    Isotropic =   203.0616   Anisotropy =   108.8543

     75  C    Isotropic =   127.1867   Anisotropy =    77.5158

     76  H    Isotropic =    27.1870   Anisotropy =     9.4752

     77  H    Isotropic =    27.5726   Anisotropy =     8.5966

     78  H    Isotropic =    27.5787   Anisotropy =     8.8419

     79  C    Isotropic =   126.8571   Anisotropy =    76.5245

     80  H    Isotropic =    27.9799   Anisotropy =     9.4020

     81  H    Isotropic =    27.4635   Anisotropy =     9.3232

     82  H    Isotropic =    27.6193   Anisotropy =     7.1421

     83  C    Isotropic =   126.6962   Anisotropy =    75.9737

     84  H    Isotropic =    27.2820   Anisotropy =     9.1993

     85  H    Isotropic =    27.7540   Anisotropy =     7.0655

     86  H    Isotropic =    27.6996   Anisotropy =     9.1638

     87  C    Isotropic =   126.8804   Anisotropy =    78.0386

     88  H    Isotropic =    27.2344   Anisotropy =     9.5959

     89  H    Isotropic =    27.2419   Anisotropy =     8.3286

     90  H    Isotropic =    27.3006   Anisotropy =     9.2029

     91  C    Isotropic =   127.1886   Anisotropy =    77.4017

     92  H    Isotropic =    27.6594   Anisotropy =     8.8202

     93  H    Isotropic =    27.3034   Anisotropy =     9.4807

     94  H    Isotropic =    27.6910   Anisotropy =     9.0599

     95  C    Isotropic =   127.1568   Anisotropy =    77.4686

     96  H    Isotropic =    27.2941   Anisotropy =     9.6508

     97  H    Isotropic =    27.6453   Anisotropy =     8.2526

     98  H    Isotropic =    27.7069   Anisotropy =     9.0679

 The electronic state is 1-A.
 Alpha  occ. eigenvalues -- ********************-427.54184-414.87223-414.87208
 Alpha  occ. eigenvalues -- -414.86927-149.64850-141.92663-141.92656-141.92594
 Alpha  occ. eigenvalues -- -100.54835-100.54594-100.54254-100.52629 -99.92233
 Alpha  occ. eigenvalues --  -92.08051 -92.08023 -92.07608 -79.03969 -79.03850
 Alpha  occ. eigenvalues --  -79.03630 -79.03606 -79.03540 -76.32318 -76.31573
 Alpha  occ. eigenvalues --  -28.81234 -25.15874 -25.15845 -25.15644 -20.83704
 Alpha  occ. eigenvalues --  -18.80665 -18.80628 -18.80602 -18.80329 -18.80029
 Alpha  occ. eigenvalues --  -18.79725 -17.70755 -17.70753 -17.70618 -17.70599
 Alpha  occ. eigenvalues --  -17.70563 -17.40466 -17.40417 -17.39548 -11.58931
 Alpha  occ. eigenvalues --  -11.58502 -11.58067 -11.58006 -11.57880  -9.97036
 Alpha  occ. eigenvalues --   -9.96913  -9.96834  -9.96711  -9.96330  -9.95904
 Alpha  occ. eigenvalues --   -9.94871  -9.94798  -9.94717  -9.94502  -9.94259
 Alpha  occ. eigenvalues --   -9.94120  -9.92048  -9.92002  -9.91979  -9.91745
 Alpha  occ. eigenvalues --   -9.91647  -9.91610  -9.91499  -9.91415  -9.91336
 Alpha  occ. eigenvalues --   -9.91298  -9.91296  -9.91276  -9.91094  -9.91069
 Alpha  occ. eigenvalues --   -9.91058  -9.90943  -9.90914  -9.90735  -9.90691
 Alpha  occ. eigenvalues --   -9.90598  -9.90582  -9.90527  -9.90526  -9.90524
 Alpha  occ. eigenvalues --   -9.90438  -9.90266  -9.90197  -9.90059  -9.89856
 Alpha  occ. eigenvalues --   -9.89617  -9.12689  -9.12453  -9.12127  -9.10445
 Alpha  occ. eigenvalues --   -6.96503  -6.96254  -6.95917  -6.95876  -6.95846
 Alpha  occ. eigenvalues --   -6.95651  -6.95609  -6.95316  -6.95300  -6.94225
 Alpha  occ. eigenvalues --   -6.93658  -6.93618  -6.35166  -6.34523  -4.57698
 Alpha  occ. eigenvalues --   -4.57685  -4.57470  -4.57069  -4.57038  -4.56786
 Alpha  occ. eigenvalues --   -4.49953  -3.23388  -3.23361  -3.23014  -3.13777
 Alpha  occ. eigenvalues --   -3.13770  -3.13302  -3.13006  -3.12865  -3.12811
 Alpha  occ. eigenvalues --   -3.12759  -2.86719  -1.81736  -1.81586  -1.79076
 Alpha  occ. eigenvalues --   -1.02435  -1.02423  -1.02056  -1.02055  -1.01956
 Alpha  occ. eigenvalues --   -1.00156  -1.00156  -1.00104  -0.99917  -0.99592
 Alpha  occ. eigenvalues --   -0.99267  -0.80030  -0.79858  -0.79300  -0.79073
 Alpha  occ. eigenvalues --   -0.78891  -0.78523  -0.72441  -0.72304  -0.71291
 Alpha  occ. eigenvalues --   -0.70444  -0.70296  -0.70023  -0.69970  -0.69773
 Alpha  occ. eigenvalues --   -0.69523  -0.69398  -0.69310  -0.69265  -0.69109
 Alpha  occ. eigenvalues --   -0.68937  -0.68575  -0.67831  -0.66049  -0.65981
 Alpha  occ. eigenvalues --   -0.64150  -0.64016  -0.63731  -0.63575  -0.59237
 Alpha  occ. eigenvalues --   -0.59055  -0.56980  -0.56899  -0.56782  -0.56486
 Alpha  occ. eigenvalues --   -0.56177  -0.55814  -0.54429  -0.54347  -0.54064
 Alpha  occ. eigenvalues --   -0.53948  -0.52148  -0.51968  -0.49939  -0.49875
 Alpha  occ. eigenvalues --   -0.49728  -0.49623  -0.49242  -0.49008  -0.45492
 Alpha  occ. eigenvalues --   -0.45385  -0.45156  -0.45062  -0.44665  -0.44600
 Alpha  occ. eigenvalues --   -0.43726  -0.43508  -0.43282  -0.43173  -0.43148
 Alpha  occ. eigenvalues --   -0.42971  -0.42907  -0.42730  -0.42435  -0.42224
 Alpha  occ. eigenvalues --   -0.41752  -0.41390  -0.41029  -0.40885  -0.40766
 Alpha  occ. eigenvalues --   -0.40424  -0.40227  -0.39536  -0.39359  -0.39091
 Alpha  occ. eigenvalues --   -0.38996  -0.38915  -0.38862  -0.38570  -0.38345
 Alpha  occ. eigenvalues --   -0.38065  -0.38055  -0.37937  -0.37754  -0.37615
 Alpha  occ. eigenvalues --   -0.37355  -0.36003  -0.35499  -0.35296  -0.35226
 Alpha  occ. eigenvalues --   -0.35040  -0.34740  -0.34601  -0.33711  -0.33626
 Alpha  occ. eigenvalues --   -0.33216  -0.33092  -0.32840  -0.32800  -0.32562
 Alpha  occ. eigenvalues --   -0.32514  -0.32187  -0.31991  -0.31791  -0.31593
 Alpha  occ. eigenvalues --   -0.31499  -0.30548  -0.30402  -0.30106  -0.29953
 Alpha  occ. eigenvalues --   -0.29708  -0.29549  -0.29421  -0.29372  -0.29240
 Alpha  occ. eigenvalues --   -0.29089  -0.28962  -0.28730  -0.28567  -0.28094
 Alpha  occ. eigenvalues --   -0.27428  -0.26777  -0.26625  -0.26430  -0.26015
 Alpha  occ. eigenvalues --   -0.25480  -0.25266  -0.24926  -0.24822  -0.24632
 Alpha  occ. eigenvalues --   -0.24416  -0.24145  -0.24096  -0.23843  -0.23643
 Alpha  occ. eigenvalues --   -0.22722  -0.22169  -0.21607  -0.21575  -0.21483
 Alpha  occ. eigenvalues --   -0.20790  -0.20698  -0.20111  -0.19687
 Alpha virt. eigenvalues --   -0.11178  -0.07109  -0.06786  -0.06309  -0.06091
 Alpha virt. eigenvalues --   -0.05846  -0.05768  -0.05647  -0.05557  -0.05168
 Alpha virt. eigenvalues --   -0.04988  -0.04632  -0.04057  -0.03799  -0.02055

 Mulliken charges:
               1
     1  Pt   0.191565
     2  Cl  -0.356010
     3  Sn   0.363199
     4  Cl  -0.213103
     5  Cl  -0.217189
     6  Cl  -0.238426
     7  P    1.093324
     8  P    0.923228
     9  C   -0.693517
    10  C    0.167797
    11  C    0.178649
    12  C   -0.089431
    13  H    0.053251
    14  C   -0.152080
    15  H    0.086598
    16  C   -0.237845
    17  H    0.121193
    18  H    0.090857
    19  C   -0.554393
    20  C    0.275725
    21  C    0.267015
    22  C   -0.083363
    23  H    0.048179
    24  C   -0.277390
    25  H    0.061089
    26  C   -0.263476
    27  H    0.115893
    28  H    0.065959
    29  C   -1.179919
    30  C    0.580662
    31  C    0.864525
    32  C    0.176545
    33  H    0.087430
    34  C   -0.179710
    35  H    0.093794
    36  C   -1.163214
    37  H    0.133486
    38  H    0.097926
    39  C   -0.868957
    40  C    0.214142
    41  C    0.226639
    42  C   -0.077434
    43  H    0.047969
    44  C   -0.068882
    45  H    0.080864
    46  C   -0.271561
    47  H    0.121386
    48  H    0.089657
    49  C   -0.567660
    50  C    0.247315
    51  C    0.292584
    52  C   -0.054539
    53  H    0.045075
    54  C   -0.291251
    55  H    0.063613
    56  C   -0.225508
    57  H    0.124055
    58  H    0.090151
    59  C   -0.798838
    60  C    0.345201
    61  C    0.400076
    62  C   -0.349806
    63  H    0.067253
    64  C   -0.113012
    65  H    0.056127
    66  C   -0.154402
    67  H    0.066079
    68  H    0.104635
    69  O   -0.004141
    70  O   -0.003841
    71  O   -0.018074
    72  O    0.001431
    73  O   -0.000254
    74  O   -0.027375
    75  C   -0.306567
    76  H    0.167170
    77  H    0.149224
    78  H    0.149244
    79  C   -0.235382
    80  H    0.145126
    81  H    0.159397
    82  H    0.102835
    83  C   -0.221725
    84  H    0.158630
    85  H    0.101113
    86  H    0.139911
    87  C   -0.314779
    88  H    0.165948
    89  H    0.148073
    90  H    0.149146
    91  C   -0.305391
    92  H    0.149374
    93  H    0.167035
    94  H    0.148677
    95  C   -0.304245
    96  H    0.166820
    97  H    0.143744
    98  H    0.149077
 Sum of Mulliken charges =   0.00000

 Dipole moment (field-independent basis, Debye):
    X=             12.1389    Y=             23.8441    Z=              0.0840  Tot=             26.7563
 Quadrupole moment (field-independent basis, Debye-Ang):
   XX=           -346.1283   YY=           -403.2489   ZZ=           -360.3372
   XY=            -41.4542   XZ=             -6.1908   YZ=             -1.5723

 Normal termination of Gaussian 09 at Sun Sep  9 05:17:32 2018.
