 Gaussian 09, Revision D.01,
 Gaussian 09:  EM64L-G09RevD.01 24-Apr-2013

 ----------------------------------------------------------------------
 #PBEPBE/gen scf=(maxcycle=500,conver=3) NMR=GIAO Scrf=(solvent=Dichlor
 omethane)
 ----------------------------------------------------------------------

 ------------
 estrutura 98
 ------------
 Symbolic Z-matrix:
 Charge =  0 Multiplicity = 1

                         Standard orientation:
 ---------------------------------------------------------------------
 Center     Atomic      Atomic             Coordinates (Angstroms)
 Number     Number       Type             X           Y           Z
 ---------------------------------------------------------------------
      1         78           0        0.149453   -0.631782   -0.232077
      2         15           0       -2.354264   -0.297600    0.014987
      3         15           0        0.849121    1.557511   -0.039667
      4          6           0       -2.966671   -1.007875    1.606143
      5          6           0       -4.338043   -1.228440    1.837429
      6          6           0       -2.056353   -1.241618    2.649138
      7          6           0       -4.780727   -1.713655    3.070012
      8          1           0       -5.071816   -1.015673    1.058667
      9          6           0       -2.504391   -1.697081    3.894187
     10          1           0       -0.993309   -1.053203    2.491084
     11          6           0       -3.864692   -1.947268    4.102494
     12          1           0       -5.846362   -1.904384    3.226560
     13          1           0       -1.783894   -1.857311    4.701526
     14          1           0       -4.214426   -2.316136    5.070211
     15          6           0       -3.146732   -1.258184   -1.359947
     16          6           0       -2.860887   -0.876341   -2.684250
     17          6           0       -3.932591   -2.404282   -1.155091
     18          6           0       -3.380390   -1.587857   -3.769449
     19          1           0       -2.210841   -0.023606   -2.880849
     20          6           0       -4.446148   -3.120478   -2.243375
     21          1           0       -4.128513   -2.766999   -0.146455
     22          6           0       -4.181078   -2.712637   -3.552896
     23          1           0       -3.146244   -1.266588   -4.787000
     24          1           0       -5.049914   -4.012353   -2.061118
     25          1           0       -4.583025   -3.275866   -4.399987
     26          6           0       -3.259307    1.334049    0.015574
     27          6           0       -3.428770    2.010669    1.238990
     28          6           0       -3.765499    1.931317   -1.151766
     29          6           0       -4.097429    3.235962    1.293836
     30          1           0       -3.051291    1.576216    2.165253
     31          6           0       -4.427847    3.160917   -1.095372
     32          1           0       -3.666461    1.437408   -2.117610
     33          6           0       -4.599644    3.817757    0.126586
     34          1           0       -4.228306    3.734513    2.257857
     35          1           0       -4.815284    3.602739   -2.016538
     36          1           0       -5.126600    4.774078    0.169753
     37          6           0        2.633170    2.066028   -0.215219
     38          6           0        3.490288    2.228210    0.885467
     39          6           0        3.127923    2.348493   -1.502287
     40          6           0        4.804675    2.668514    0.702602
     41          1           0        3.142177    2.022773    1.896670
     42          6           0        4.440282    2.788253   -1.681787
     43          1           0        2.483763    2.241032   -2.376632
     44          6           0        5.283914    2.951687   -0.578445
     45          1           0        5.453796    2.791047    1.572821
     46          1           0        4.802329    3.007173   -2.689636
     47          1           0        6.309263    3.301765   -0.717416
     48          6           0        0.407777    2.111998    1.666209
     49          6           0       -0.375424    3.238832    1.960293
     50          6           0        0.885040    1.319621    2.730054
     51          6           0       -0.650509    3.582848    3.289186
     52          1           0       -0.795216    3.849913    1.163137
     53          6           0        0.616181    1.672823    4.054018
     54          1           0        1.472857    0.421001    2.524200
     55          6           0       -0.150323    2.808864    4.338291
     56          1           0       -1.265683    4.461528    3.499652
     57          1           0        1.003984    1.053097    4.866078
     58          1           0       -0.362932    3.083881    5.374421
     59          6           0        0.107150    2.699629   -1.284646
     60          6           0        0.220725    4.098787   -1.172824
     61          6           0       -0.438045    2.156481   -2.457866
     62          6           0       -0.253639    4.929089   -2.190927
     63          1           0        0.703109    4.550677   -0.303881
     64          6           0       -0.894913    2.988155   -3.486116
     65          1           0       -0.470413    1.071450   -2.576350
     66          6           0       -0.816106    4.376346   -3.348260
     67          1           0       -0.168280    6.014509   -2.086118
     68          1           0       -1.307906    2.547400   -4.397168
     69          1           0       -1.176570    5.028958   -4.147736
     70         50           0        2.569548   -1.667730   -0.652672
     71         35           0       -0.491644   -3.125462   -0.223613
     72         35           0        3.930450   -1.418144    1.605133
     73          6           0        3.909841   -0.846666   -2.183135
     74          1           0        4.741952   -0.306084   -1.712877
     75          1           0        4.296968   -1.701709   -2.759415
     76          1           0        3.368177   -0.165312   -2.853655
     77          6           0        2.859962   -3.816788   -0.907976
     78          1           0        2.414484   -4.378225   -0.077976
     79          1           0        2.386676   -4.128204   -1.851247
     80          1           0        3.943334   -4.003407   -0.958825
 ---------------------------------------------------------------------

 SCF Done:  E(RPBE-PBE) =  -30378.1957966     A.U. after    8 cycles

      1  Pt   Isotropic =  3356.4739   Anisotropy =  1500.6124

      2  P    Isotropic =   275.7309   Anisotropy =    50.2541

      3  P    Isotropic =   264.5803   Anisotropy =    83.9730

      4  C    Isotropic =     2.4290   Anisotropy =   171.5111

      5  C    Isotropic =   -15.3595   Anisotropy =   112.1504

      6  C    Isotropic =    13.5473   Anisotropy =   126.6718

      7  C    Isotropic =    57.2114   Anisotropy =   265.6957

      8  H    Isotropic =    23.2279   Anisotropy =    14.0457

      9  C    Isotropic =    71.0205   Anisotropy =   225.2657

     10  H    Isotropic =    23.7071   Anisotropy =    13.7693

     11  C    Isotropic =    85.7551   Anisotropy =   317.7907

     12  H    Isotropic =    21.2310   Anisotropy =     9.9664

     13  H    Isotropic =    25.2419   Anisotropy =     7.9881

     14  H    Isotropic =    23.4599   Anisotropy =     5.5278

     15  C    Isotropic =    19.5956   Anisotropy =   220.5285

     16  C    Isotropic =    34.3360   Anisotropy =   189.8577

     17  C    Isotropic =     6.2004   Anisotropy =   149.2214

     18  C    Isotropic =    41.4371   Anisotropy =   207.0587

     19  H    Isotropic =    22.6009   Anisotropy =    11.2602

     20  C    Isotropic =    34.8050   Anisotropy =   228.3368

     21  H    Isotropic =    22.7202   Anisotropy =    14.4427

     22  C    Isotropic =    61.1471   Anisotropy =   309.8821

     23  H    Isotropic =    22.5928   Anisotropy =     8.4648

     24  H    Isotropic =    20.3208   Anisotropy =    11.9601

     25  H    Isotropic =    20.5988   Anisotropy =     9.0891

     26  C    Isotropic =    -6.5580   Anisotropy =   230.9630

     27  C    Isotropic =   -13.2157   Anisotropy =   127.8685

     28  C    Isotropic =    25.7491   Anisotropy =   177.5033

     29  C    Isotropic =    68.0470   Anisotropy =   229.3240

     30  H    Isotropic =    26.2767   Anisotropy =    11.1110

     31  C    Isotropic =    89.2379   Anisotropy =   266.3030

     32  H    Isotropic =    24.1949   Anisotropy =    13.4233

     33  C    Isotropic =    78.3725   Anisotropy =   217.7122

     34  H    Isotropic =    28.4356   Anisotropy =     4.4885

     35  H    Isotropic =    29.8491   Anisotropy =    10.2172

     36  H    Isotropic =    30.4666   Anisotropy =    11.9244

     37  C    Isotropic =   148.0223   Anisotropy =   230.8259

     38  C    Isotropic =   204.9836   Anisotropy =   485.4918

     39  C    Isotropic =   192.0932   Anisotropy =   456.9200

     40  C    Isotropic =    -7.8793   Anisotropy =    69.3513

     41  H    Isotropic =    23.0043   Anisotropy =     9.6233

     42  C    Isotropic =     5.5201   Anisotropy =    77.4387

     43  H    Isotropic =    23.8724   Anisotropy =    16.7103

     44  C    Isotropic =   -90.7077   Anisotropy =   153.3040

     45  H    Isotropic =    18.4735   Anisotropy =    14.9261

     46  H    Isotropic =    18.6203   Anisotropy =    15.1334

     47  H    Isotropic =    18.0639   Anisotropy =    12.8245

     48  C    Isotropic =   109.8789   Anisotropy =   123.9206

     49  C    Isotropic =    68.8249   Anisotropy =   173.5485

     50  C    Isotropic =    99.4839   Anisotropy =   223.7799

     51  C    Isotropic =    -9.2094   Anisotropy =    55.6981

     52  H    Isotropic =    22.1483   Anisotropy =    11.0571

     53  C    Isotropic =    58.4213   Anisotropy =   136.4221

     54  H    Isotropic =    22.6371   Anisotropy =    13.0528

     55  C    Isotropic =     3.9710   Anisotropy =    75.4901

     56  H    Isotropic =    18.2091   Anisotropy =    13.2009

     57  H    Isotropic =    22.3999   Anisotropy =     8.8416

     58  H    Isotropic =    18.9153   Anisotropy =    10.9999

     59  C    Isotropic =    94.9708   Anisotropy =    86.3091

     60  C    Isotropic =    79.9691   Anisotropy =   208.9470

     61  C    Isotropic =    89.7310   Anisotropy =   211.5635

     62  C    Isotropic =    -1.1854   Anisotropy =    71.4773

     63  H    Isotropic =    21.9377   Anisotropy =    13.4807

     64  C    Isotropic =    47.9332   Anisotropy =   143.7241

     65  H    Isotropic =    19.1874   Anisotropy =    17.0883

     66  C    Isotropic =    14.2737   Anisotropy =   120.0032

     67  H    Isotropic =    19.3478   Anisotropy =    11.1247

     68  H    Isotropic =    22.0273   Anisotropy =     8.4311

     69  H    Isotropic =    18.6482   Anisotropy =     9.9685

     70  Sn   Isotropic =  1880.9743   Anisotropy =   325.1715

     71  Br   Isotropic =  2628.2235   Anisotropy =  1007.5000

     72  Br   Isotropic =  2564.2409   Anisotropy =   423.0980

     73  C    Isotropic =   174.3947   Anisotropy =    22.9933

     74  H    Isotropic =    32.9451   Anisotropy =     7.6130

     75  H    Isotropic =    31.5979   Anisotropy =    14.0464

     76  H    Isotropic =    31.6336   Anisotropy =     8.3697

     77  C    Isotropic =   175.1934   Anisotropy =    17.7401

     78  H    Isotropic =    30.8163   Anisotropy =     9.9729

     79  H    Isotropic =    31.4793   Anisotropy =    12.4926

     80  H    Isotropic =    31.5942   Anisotropy =    14.1004

 The electronic state is 1-A.
 Alpha  occ. eigenvalues -- ********************-478.58364-478.56341-427.52974
 Alpha  occ. eigenvalues -- -414.86002-414.85990-414.85734-149.60793-141.88639
 Alpha  occ. eigenvalues -- -141.88516-141.88502 -99.91013 -92.06823 -92.06783
 Alpha  occ. eigenvalues --  -92.06417 -79.02723 -79.02623 -79.02426 -79.02397
 Alpha  occ. eigenvalues --  -79.02340 -76.32657 -76.30045 -61.50216 -61.48268
 Alpha  occ. eigenvalues --  -55.68627 -55.68439 -55.68429 -55.66664 -55.66484
 Alpha  occ. eigenvalues --  -55.66458 -28.77323 -25.12124 -25.11768 -25.11719
 Alpha  occ. eigenvalues --  -20.82441 -17.66898 -17.66831 -17.66799 -17.66563
 Alpha  occ. eigenvalues --  -17.66554 -17.39176 -17.39129 -17.38335 -11.57596
 Alpha  occ. eigenvalues --  -11.57234 -11.56823 -11.56770 -11.56647  -9.93397
 Alpha  occ. eigenvalues --   -9.93333  -9.93242  -9.92293  -9.91839  -9.91698
 Alpha  occ. eigenvalues --   -9.91653  -9.91591  -9.91526  -9.91465  -9.91420
 Alpha  occ. eigenvalues --   -9.91129  -9.91114  -9.90889  -9.90813  -9.90763
 Alpha  occ. eigenvalues --   -9.90710  -9.90617  -9.90575  -9.90543  -9.90506
 Alpha  occ. eigenvalues --   -9.90480  -9.90426  -9.90420  -9.90412  -9.90313
 Alpha  occ. eigenvalues --   -9.90295  -9.90293  -9.90271  -9.90257  -9.90182
 Alpha  occ. eigenvalues --   -9.90163  -9.90123  -9.90106  -9.89948  -9.89753
 Alpha  occ. eigenvalues --   -9.87071  -9.86682  -8.33090  -8.31354  -6.35554
 Alpha  occ. eigenvalues --   -6.33104  -6.23769  -6.23219  -6.23190  -6.22039
 Alpha  occ. eigenvalues --   -6.21500  -6.21430  -4.58111  -4.58083  -4.57809
 Alpha  occ. eigenvalues --   -4.55669  -4.55652  -4.55280  -4.46257  -3.20061
 Alpha  occ. eigenvalues --   -3.19375  -3.19289  -3.12460  -3.12453  -3.12021
 Alpha  occ. eigenvalues --   -3.11769  -3.11622  -3.11585  -3.11529  -2.85445
 Alpha  occ. eigenvalues --   -2.44753  -2.44615  -2.44594  -2.44187  -2.44187
 Alpha  occ. eigenvalues --   -2.43020  -2.42893  -2.42844  -2.42446  -2.42445
 Alpha  occ. eigenvalues --   -1.80565  -1.80112  -1.77912  -0.99044  -0.98733
 Alpha  occ. eigenvalues --   -0.98668  -0.98345  -0.98166  -0.80354  -0.79484
 Alpha  occ. eigenvalues --   -0.79454  -0.79129  -0.78690  -0.78634  -0.72192
 Alpha  occ. eigenvalues --   -0.71304  -0.69480  -0.69400  -0.68947  -0.68804
 Alpha  occ. eigenvalues --   -0.68622  -0.68615  -0.68572  -0.68355  -0.68180
 Alpha  occ. eigenvalues --   -0.67977  -0.66103  -0.64527  -0.61344  -0.61122
 Alpha  occ. eigenvalues --   -0.60273  -0.59710  -0.56585  -0.56325  -0.55950
 Alpha  occ. eigenvalues --   -0.55533  -0.55488  -0.55158  -0.55067  -0.54924
 Alpha  occ. eigenvalues --   -0.54611  -0.54502  -0.52368  -0.51555  -0.48055
 Alpha  occ. eigenvalues --   -0.47808  -0.47347  -0.47272  -0.46215  -0.45628
 Alpha  occ. eigenvalues --   -0.42589  -0.42395  -0.41853  -0.41684  -0.41658
 Alpha  occ. eigenvalues --   -0.41452  -0.41106  -0.41031  -0.40835  -0.40722
 Alpha  occ. eigenvalues --   -0.40573  -0.40253  -0.39131  -0.38815  -0.38634
 Alpha  occ. eigenvalues --   -0.38592  -0.38305  -0.38209  -0.38079  -0.38040
 Alpha  occ. eigenvalues --   -0.37457  -0.37411  -0.36610  -0.36562  -0.35763
 Alpha  occ. eigenvalues --   -0.35285  -0.35126  -0.34742  -0.34367  -0.34296
 Alpha  occ. eigenvalues --   -0.34237  -0.34049  -0.33510  -0.33411  -0.33386
 Alpha  occ. eigenvalues --   -0.32611  -0.31774  -0.31723  -0.31491  -0.31270
 Alpha  occ. eigenvalues --   -0.31191  -0.31026  -0.30594  -0.30461  -0.30212
 Alpha  occ. eigenvalues --   -0.29849  -0.29374  -0.28551  -0.27421  -0.27100
 Alpha  occ. eigenvalues --   -0.26750  -0.25733  -0.25444  -0.25248  -0.24964
 Alpha  occ. eigenvalues --   -0.24823  -0.24712  -0.24329  -0.24325  -0.24155
 Alpha  occ. eigenvalues --   -0.24031  -0.23856  -0.23646  -0.23527  -0.23248
 Alpha  occ. eigenvalues --   -0.23140  -0.22345  -0.21382  -0.21183  -0.20909
 Alpha  occ. eigenvalues --   -0.19065
 Alpha virt. eigenvalues --   -0.09708  -0.07891  -0.06897  -0.06829  -0.06558
 Alpha virt. eigenvalues --   -0.06210  -0.06043  -0.05926  -0.05716  -0.05387
 Alpha virt. eigenvalues --   -0.05216  -0.04941  -0.04558  -0.04341  -0.02111

 Mulliken charges:
               1
     1  Pt   0.544430
     2  P    1.052297
     3  P    0.714175
     4  C   -0.734253
     5  C    0.277346
     6  C    0.316758
     7  C    0.022880
     8  H    0.098102
     9  C   -0.178986
    10  H    0.075863
    11  C   -0.623111
    12  H    0.143696
    13  H    0.142483
    14  H    0.156349
    15  C   -0.750406
    16  C    0.650155
    17  C    0.198570
    18  C   -0.117321
    19  H    0.051715
    20  C   -0.249276
    21  H    0.100648
    22  C   -0.573889
    23  H    0.141903
    24  H    0.143193
    25  H    0.154881
    26  C   -0.959720
    27  C    0.490395
    28  C    0.236459
    29  C   -0.041267
    30  H    0.074458
    31  C   -0.161579
    32  H    0.072732
    33  C   -0.556388
    34  H    0.127232
    35  H    0.134022
    36  H    0.148056
    37  C   -0.840276
    38  C    0.092814
    39  C    0.430396
    40  C   -0.112727
    41  H    0.087170
    42  C    0.016139
    43  H    0.086093
    44  C   -0.499608
    45  H    0.141864
    46  H    0.126787
    47  H    0.147680
    48  C   -0.913485
    49  C    0.452189
    50  C    0.463572
    51  C   -0.182079
    52  H    0.064278
    53  C   -0.037895
    54  H    0.070627
    55  C   -0.502465
    56  H    0.127218
    57  H    0.133488
    58  H    0.150719
    59  C   -0.906270
    60  C    0.211119
    61  C    0.693762
    62  C    0.025938
    63  H    0.087095
    64  C   -0.220557
    65  H    0.038128
    66  C   -0.585585
    67  H    0.142415
    68  H    0.128798
    69  H    0.150676
    70  Sn   0.119766
    71  Br  -0.346398
    72  Br  -0.334303
    73  C   -0.334798
    74  H    0.104102
    75  H    0.130857
    76  H    0.103147
    77  C   -0.426556
    78  H    0.135503
    79  H    0.131411
    80  H    0.126646
 Sum of Mulliken charges =   0.00000

 Dipole moment (field-independent basis, Debye):
    X=             -7.0539    Y=             11.5960    Z=             -2.3184  Tot=             13.7695
 Quadrupole moment (field-independent basis, Debye-Ang):
   XX=           -331.5048   YY=           -331.8340   ZZ=           -299.8626
   XY=             12.9361   XZ=            -11.4112   YZ=             -0.2717

 1\1\GINC-NEQC27\SP\RPBEPBE\Gen\C38H36Br2P2Pt1Sn1\GUEST\13-Dec-2019\0\\
 #PBEPBE/gen scf=(maxcycle=500,conver=3) NMR=GIAO Scrf=(solvent=Dichlor
 omethane)\\estrutura 98\\0,1\Pt,0,0.149453,-0.631782,-0.232077\P,0,-2.
 354264,-0.2976,0.014987\P,0,0.849121,1.557511,-0.039667\C,0,-2.966671,
 -1.007875,1.606143\C,0,-4.338043,-1.22844,1.837429\C,0,-2.056353,-1.24
 1618,2.649138\C,0,-4.780727,-1.713655,3.070012\H,0,-5.071816,-1.015673
 ,1.058667\C,0,-2.504391,-1.697081,3.894187\H,0,-0.993309,-1.053203,2.4
 91084\C,0,-3.864692,-1.947268,4.102494\H,0,-5.846362,-1.904384,3.22656

 Normal termination of Gaussian 09 at Fri Dec 13 01:04:06 2019.
