 Gaussian 09, Revision D.01,
 Gaussian 09:  EM64L-G09RevD.01 24-Apr-2013

 ----------------------------------------------------------------------
 #PBEPBE/gen scf=(maxcycle=500,conver=4) NMR=GIAO Scrf=(solvent=Dichlor
 omethane)
 ----------------------------------------------------------------------

 ------------
 estrutura 76
 ------------
 Symbolic Z-matrix:
 Charge =  0 Multiplicity = 1

                         Standard orientation:
 ---------------------------------------------------------------------
 Center     Atomic      Atomic             Coordinates (Angstroms)
 Number     Number       Type             X           Y           Z
 ---------------------------------------------------------------------
      1         78           0       -0.172342   -0.020138   -0.045070
      2         15           0        0.067233    2.377470   -0.102027
      3         15           0       -0.516283   -2.387679    0.119689
      4          6           0        0.283056    2.960781    1.643932
      5          1           0        1.059039    2.302150    2.064804
      6          1           0       -0.656107    2.700249    2.158436
      7          6           0        0.654411    4.428325    1.879085
      8          1           0       -0.065320    5.125897    1.423978
      9          1           0        0.676951    4.635392    2.960951
     10          1           0        1.653804    4.662325    1.482924
     11          6           0        1.595684    2.926776   -1.021537
     12          1           0        1.733314    2.216413   -1.850427
     13          6           0       -1.309454    3.387067   -0.841926
     14          1           0       -0.856049    4.323536   -1.197508
     15          1           0       -1.638260    2.837963   -1.737755
     16          6           0       -2.506972    3.719006    0.051869
     17          1           0       -3.250933    4.284073   -0.533579
     18          1           0       -3.001272    2.820205    0.446774
     19          1           0       -2.216419    4.353800    0.903900
     20          6           0        0.338672   -3.370214   -1.198683
     21          1           0        0.099385   -4.433028   -1.030868
     22          1           0        1.420289   -3.263085   -1.009453
     23          6           0       -0.014517   -2.944847   -2.626101
     24          1           0       -1.085912   -3.079410   -2.844218
     25          1           0        0.235005   -1.884515   -2.796862
     26          1           0        0.546271   -3.547753   -3.354215
     27          6           0       -2.292029   -2.931148    0.053376
     28          1           0       -2.775240   -2.472469    0.932644
     29          1           0       -2.743719   -2.430703   -0.818575
     30          6           0       -2.545844   -4.440000    0.010553
     31          1           0       -3.627322   -4.633928    0.081550
     32          1           0       -2.192775   -4.892838   -0.929248
     33          1           0       -2.062714   -4.974683    0.843605
     34          6           0        0.129606   -3.107685    1.702722
     35          1           0       -0.186012   -4.164216    1.736647
     36          1           0        1.229789   -3.111681    1.622004
     37          6           0       -0.313802   -2.365554    2.967653
     38          1           0        0.076390   -2.879990    3.862515
     39          1           0        0.069547   -1.331486    2.977714
     40          1           0       -1.411749   -2.322591    3.065815
     41         50           0        2.546018   -0.342103   -0.044440
     42         17           0        3.867071    0.133980   -2.056704
     43         17           0        3.767915    1.058252    1.576476
     44         17           0        3.665122   -2.459609    0.506549
     45          6           0        1.683557    4.358312   -1.559603
     46          1           0        2.693972    4.527211   -1.965105
     47          1           0        0.973044    4.534572   -2.380240
     48          1           0        1.507660    5.119932   -0.787161
     49          1           0        2.421199    2.735154   -0.317047
     50          6           0       -2.211779    0.231125   -0.002031
     51          6           0       -2.919147    0.316628    1.209388
     52          6           0       -2.953217    0.287887   -1.195107
     53          6           0       -4.314219    0.443831    1.230507
     54          1           0       -2.383902    0.277361    2.162509
     55          6           0       -4.347498    0.419080   -1.185877
     56          1           0       -2.444077    0.228758   -2.161622
     57          6           0       -5.037690    0.496005    0.032352
     58          1           0       -4.857921    0.508964    2.176375
     59          1           0       -4.895047    0.473504   -2.130031
     60          8           0       -6.396878    0.675788    0.099255
     61          6           0       -7.211668   -0.269566   -0.579137
     62          1           0       -7.110799   -1.275801   -0.125057
     63          1           0       -8.252845    0.070735   -0.475775
     64          1           0       -6.973438   -0.346752   -1.655940
 ---------------------------------------------------------------------

 SCF Done:  E(RPBE-PBE) =  -25974.5230702     A.U. after   11 cycles

      1  Pt   Isotropic =  3013.5858   Anisotropy =  1112.6914

      2  P    Isotropic =   291.6476   Anisotropy =    26.5141

      3  P    Isotropic =   270.6413   Anisotropy =    56.3447

      4  C    Isotropic =   157.8519   Anisotropy =    32.2742

      5  H    Isotropic =    28.7651   Anisotropy =     7.1474

      6  H    Isotropic =    29.2142   Anisotropy =     5.4933

      7  C    Isotropic =   172.2463   Anisotropy =    19.8672

      8  H    Isotropic =    30.4239   Anisotropy =     8.6101

      9  H    Isotropic =    30.0769   Anisotropy =    13.1699

     10  H    Isotropic =    30.0469   Anisotropy =     7.8387

     11  C    Isotropic =   148.1200   Anisotropy =    30.8602

     12  H    Isotropic =    28.6303   Anisotropy =     8.5041

     13  C    Isotropic =   164.8807   Anisotropy =    20.7919

     14  H    Isotropic =    29.1533   Anisotropy =     9.3545

     15  H    Isotropic =    29.8088   Anisotropy =     6.0063

     16  C    Isotropic =   175.0053   Anisotropy =    19.3388

     17  H    Isotropic =    30.8631   Anisotropy =    11.7354

     18  H    Isotropic =    31.8812   Anisotropy =    14.2732

     19  H    Isotropic =    30.9878   Anisotropy =     8.6673

     20  C    Isotropic =   156.9386   Anisotropy =    20.1883

     21  H    Isotropic =    29.4319   Anisotropy =     9.0454

     22  H    Isotropic =    29.0063   Anisotropy =    10.0301

     23  C    Isotropic =   172.4772   Anisotropy =    19.1978

     24  H    Isotropic =    30.5595   Anisotropy =     9.0835

     25  H    Isotropic =    30.1460   Anisotropy =     5.5871

     26  H    Isotropic =    30.1906   Anisotropy =    13.1993

     27  C    Isotropic =   165.6383   Anisotropy =    25.5094

     28  H    Isotropic =    30.2657   Anisotropy =     8.4053

     29  H    Isotropic =    30.1501   Anisotropy =     9.6216

     30  C    Isotropic =   177.5246   Anisotropy =    17.7124

     31  H    Isotropic =    30.5369   Anisotropy =    12.4154

     32  H    Isotropic =    30.6604   Anisotropy =     9.9666

     33  H    Isotropic =    30.5839   Anisotropy =     9.7149

     34  C    Isotropic =   158.0444   Anisotropy =    22.7667

     35  H    Isotropic =    29.3388   Anisotropy =     9.7805

     36  H    Isotropic =    28.7347   Anisotropy =    10.2447

     37  C    Isotropic =   170.9676   Anisotropy =    18.5401

     38  H    Isotropic =    30.0569   Anisotropy =    13.3986

     39  H    Isotropic =    30.1260   Anisotropy =     5.6296

     40  H    Isotropic =    30.3910   Anisotropy =     8.6117

     41  Sn   Isotropic =  2158.0422   Anisotropy =   833.3845

     42  Cl   Isotropic =   754.1125   Anisotropy =   323.5189

     43  Cl   Isotropic =   750.8644   Anisotropy =   314.3578

     44  Cl   Isotropic =   751.7676   Anisotropy =   291.3400

     45  C    Isotropic =   170.7914   Anisotropy =    21.4200

     46  H    Isotropic =    29.9846   Anisotropy =    12.0369

     47  H    Isotropic =    30.1834   Anisotropy =     9.4216

     48  H    Isotropic =    30.3089   Anisotropy =     8.2325

     49  H    Isotropic =    28.4453   Anisotropy =     9.1261

     50  C    Isotropic =    19.3003   Anisotropy =   171.9780

     51  C    Isotropic =    48.3162   Anisotropy =   163.9995

     52  C    Isotropic =    51.6132   Anisotropy =   159.3330

     53  C    Isotropic =    70.0887   Anisotropy =   152.5403

     54  H    Isotropic =    23.7507   Anisotropy =    13.1151

     55  C    Isotropic =    68.0096   Anisotropy =   175.8957

     56  H    Isotropic =    23.6658   Anisotropy =    13.8438

     57  C    Isotropic =    14.2230   Anisotropy =    80.2290

     58  H    Isotropic =    25.7592   Anisotropy =     3.8860

     59  H    Isotropic =    25.3254   Anisotropy =     5.8416

     60  O    Isotropic =   252.1406   Anisotropy =   115.8384

     61  C    Isotropic =   121.4790   Anisotropy =    90.5261

     62  H    Isotropic =    27.7543   Anisotropy =     8.7625

     63  H    Isotropic =    27.6761   Anisotropy =     8.9869

     64  H    Isotropic =    27.2557   Anisotropy =     7.8857

 The electronic state is 1-A.
 Alpha  occ. eigenvalues -- ********************-427.53637-414.86685-414.86646
 Alpha  occ. eigenvalues -- -414.86372-149.64874-141.92685-141.92682-141.92610
 Alpha  occ. eigenvalues -- -100.55347-100.55245-100.55210 -99.91666 -92.07524
 Alpha  occ. eigenvalues --  -92.07400 -92.07054 -79.03405 -79.03283 -79.03091
 Alpha  occ. eigenvalues --  -79.03028 -79.02985 -76.29726 -76.29577 -28.81258
 Alpha  occ. eigenvalues --  -25.15892 -25.15885 -25.15657 -20.83132 -18.77965
 Alpha  occ. eigenvalues --  -17.70786 -17.70785 -17.70631 -17.70628 -17.70583
 Alpha  occ. eigenvalues --  -17.39972 -17.39741 -17.39003 -11.58348 -11.57922
 Alpha  occ. eigenvalues --  -11.57529 -11.57412 -11.57327  -9.94879  -9.93669
 Alpha  occ. eigenvalues --   -9.90659  -9.90635  -9.90623  -9.90547  -9.90513
 Alpha  occ. eigenvalues --   -9.90468  -9.89944  -9.89602  -9.89503  -9.89424
 Alpha  occ. eigenvalues --   -9.89386  -9.89043  -9.89040  -9.88999  -9.88948
 Alpha  occ. eigenvalues --   -9.88923  -9.88509  -9.13211  -9.13100  -9.13064
 Alpha  occ. eigenvalues --   -6.96964  -6.96860  -6.96811  -6.96419  -6.96407
 Alpha  occ. eigenvalues --   -6.96309  -6.96291  -6.96279  -6.96261  -6.32736
 Alpha  occ. eigenvalues --   -6.32619  -4.55271  -4.55264  -4.55147  -4.55135
 Alpha  occ. eigenvalues --   -4.54987  -4.54882  -4.49963  -3.23412  -3.23387
 Alpha  occ. eigenvalues --   -3.22981  -3.13208  -3.13171  -3.12736  -3.12431
 Alpha  occ. eigenvalues --   -3.12319  -3.12232  -3.12197  -2.86089  -1.81085
 Alpha  occ. eigenvalues --   -1.80924  -1.78429  -1.02442  -1.02437  -1.02073
 Alpha  occ. eigenvalues --   -1.02032  -1.01936  -0.97418  -0.77555  -0.73373
 Alpha  occ. eigenvalues --   -0.73264  -0.71871  -0.70345  -0.70287  -0.69505
 Alpha  occ. eigenvalues --   -0.69260  -0.69068  -0.69035  -0.68193  -0.67640
 Alpha  occ. eigenvalues --   -0.62131  -0.61246  -0.60961  -0.57113  -0.56680
 Alpha  occ. eigenvalues --   -0.56452  -0.55517  -0.55121  -0.52729  -0.48981
 Alpha  occ. eigenvalues --   -0.48217  -0.47959  -0.43082  -0.42850  -0.42474
 Alpha  occ. eigenvalues --   -0.42205  -0.41972  -0.41853  -0.41383  -0.40920
 Alpha  occ. eigenvalues --   -0.40793  -0.40313  -0.39202  -0.38443  -0.38196
 Alpha  occ. eigenvalues --   -0.37881  -0.37794  -0.37630  -0.37184  -0.37032
 Alpha  occ. eigenvalues --   -0.36641  -0.36492  -0.35210  -0.34821  -0.34672
 Alpha  occ. eigenvalues --   -0.33872  -0.33398  -0.33337  -0.32940  -0.32701
 Alpha  occ. eigenvalues --   -0.32547  -0.32060  -0.31954  -0.31768  -0.31580
 Alpha  occ. eigenvalues --   -0.31191  -0.31094  -0.30891  -0.30570  -0.30345
 Alpha  occ. eigenvalues --   -0.29294  -0.28937  -0.28601  -0.28228  -0.28038
 Alpha  occ. eigenvalues --   -0.27348  -0.27088  -0.27024  -0.26089  -0.25699
 Alpha  occ. eigenvalues --   -0.25624  -0.25372  -0.25141  -0.24562  -0.23181
 Alpha  occ. eigenvalues --   -0.22948  -0.22263  -0.19966  -0.19558
 Alpha virt. eigenvalues --   -0.07948  -0.06314  -0.04851  -0.04502  -0.03512
 Alpha virt. eigenvalues --   -0.02829  -0.02199  -0.01638  -0.01373  -0.00625
 Alpha virt. eigenvalues --   -0.00296  -0.00136   0.00099   0.00675   0.01284

 Mulliken charges:
               1
     1  Pt   0.274771
     2  P    0.069985
     3  P    0.211551
     4  C   -0.378220
     5  H    0.087841
     6  H    0.094475
     7  C   -0.179666
     8  H    0.108869
     9  H    0.137106
    10  H    0.113414
    11  C   -0.319231
    12  H    0.093375
    13  C   -0.273698
    14  H    0.107373
    15  H    0.081719
    16  C   -0.107589
    17  H    0.118210
    18  H    0.053609
    19  H    0.094172
    20  C   -0.389527
    21  H    0.111143
    22  H    0.081955
    23  C   -0.113634
    24  H    0.104996
    25  H    0.074888
    26  H    0.132998
    27  C   -0.411830
    28  H    0.081252
    29  H    0.079778
    30  C   -0.175691
    31  H    0.135223
    32  H    0.114685
    33  H    0.112134
    34  C   -0.439445
    35  H    0.103964
    36  H    0.090371
    37  C   -0.097891
    38  H    0.136846
    39  H    0.072852
    40  H    0.094942
    41  Sn   0.309476
    42  Cl  -0.282639
    43  Cl  -0.295693
    44  Cl  -0.229785
    45  C   -0.171174
    46  H    0.131251
    47  H    0.115924
    48  H    0.111173
    49  H    0.077806
    50  C    0.095290
    51  C    0.130958
    52  C    0.112428
    53  C    0.296243
    54  H    0.050249
    55  C   -0.209385
    56  H    0.052260
    57  C   -0.944410
    58  H    0.126009
    59  H    0.107190
    60  O   -0.043561
    61  C   -0.268763
    62  H    0.145150
    63  H    0.163809
    64  H    0.132119
 Sum of Mulliken charges =   0.00000

 Dipole moment (field-independent basis, Debye):
    X=            -13.4805    Y=              0.3098    Z=             -0.7589  Tot=             13.5054
 Quadrupole moment (field-independent basis, Debye-Ang):
   XX=           -291.2543   YY=           -220.5540   ZZ=           -245.1173
   XY=             18.8205   XZ=              5.7896   YZ=             -1.6810

 Normal termination of Gaussian 09 at Sun Aug 25 14:52:44 2019.
