 Gaussian 09, Revision D.01,
 Gaussian 09:  EM64L-G09RevD.01 24-Apr-2013

 ----------------------------------------------------------------------
 #PBEPBE/gen scf=(maxcycle=500,conver=4) NMR=GIAO Scrf=(solvent=Dichlor
 omethane)
 ----------------------------------------------------------------------

 ------------
 estrutura 72
 ------------
 Symbolic Z-matrix:
 Charge =  0 Multiplicity = 1

                         Standard orientation:
 ---------------------------------------------------------------------
 Center     Atomic      Atomic             Coordinates (Angstroms)
 Number     Number       Type             X           Y           Z
 ---------------------------------------------------------------------
      1         78           0        0.079153   -0.032565   -0.019745
      2         15           0       -0.093314    2.374958    0.079417
      3         15           0        0.270521   -2.427615   -0.028773
      4          6           0       -0.601824    3.072487   -1.561429
      5          1           0       -1.480919    2.487731   -1.873675
      6          1           0        0.213292    2.804632   -2.255396
      7          6           0       -0.915826    4.569845   -1.629230
      8          1           0       -0.078997    5.194837   -1.280523
      9          1           0       -1.128889    4.856231   -2.672559
     10          1           0       -1.806270    4.824868   -1.033560
     11          6           0       -1.406860    2.862301    1.316553
     12          1           0       -1.409603    2.071234    2.082824
     13          6           0        1.411948    3.343610    0.582085
     14          1           0        1.048592    4.314740    0.948814
     15          1           0        1.841307    2.822476    1.452412
     16          6           0        2.477251    3.571915   -0.495255
     17          1           0        3.326260    4.122459   -0.058995
     18          1           0        2.865207    2.631679   -0.907385
     19          1           0        2.092288    4.175935   -1.330722
     20          6           0       -0.838816   -3.278309    1.186036
     21          1           0       -0.638160   -4.359304    1.106381
     22          1           0       -1.870209   -3.135365    0.826458
     23          6           0       -0.686549   -2.797198    2.630737
     24          1           0        0.333787   -2.957441    3.013184
     25          1           0       -0.924052   -1.726203    2.724185
     26          1           0       -1.377117   -3.349331    3.286839
     27          6           0        1.965605   -3.074166    0.357254
     28          1           0        2.642802   -2.624279   -0.383774
     29          1           0        2.248698   -2.628603    1.323559
     30          6           0        2.132417   -4.595163    0.390278
     31          1           0        3.185478   -4.844890    0.598714
     32          1           0        1.524173   -5.066824    1.177327
     33          1           0        1.870617   -5.065113   -0.570454
     34          6           0       -0.200744   -3.183770   -1.650710
     35          1           0       -0.067534   -4.275407   -1.562747
     36          1           0       -1.282922   -3.005386   -1.755819
     37          6           0        0.556564   -2.632095   -2.861337
     38          1           0        0.211904   -3.130464   -3.780989
     39          1           0        0.381879   -1.550593   -2.980280
     40          1           0        1.643697   -2.796272   -2.785801
     41         50           0       -2.648904   -0.221088   -0.077589
     42         17           0       -3.741558   -0.245482    2.112570
     43         17           0       -4.020288    1.504761   -1.162595
     44         17           0       -3.804276   -2.151066   -1.058296
     45          6           0       -1.325088    4.234469    1.992169
     46          1           0       -2.219227    4.378693    2.620240
     47          1           0       -0.447384    4.319314    2.650682
     48          1           0       -1.293762    5.064096    1.270373
     49          1           0       -2.358226    2.763878    0.767394
     50          6           0        2.119804    0.094938    0.027177
     51          6           0        2.869826    0.025296   -1.166566
     52          6           0        2.823705    0.210986    1.243273
     53          6           0        4.263957    0.062361   -1.154551
     54          1           0        2.359897   -0.065925   -2.128411
     55          6           0        4.218264    0.253279    1.275157
     56          1           0        2.279466    0.260784    2.190100
     57          6           0        4.925742    0.176367    0.071929
     58          1           0        4.842159    0.005698   -2.076821
     59          1           0        4.762467    0.340050    2.215610
     60          8           0        6.987201    0.145309   -0.971656
     61          8           0        6.947359    0.314533    1.182791
     62          7           0        6.390542    0.215013    0.096240
 ---------------------------------------------------------------------

 SCF Done:  E(RPBE-PBE) =  -26064.4866889     A.U. after   14 cycles

      1  Pt   Isotropic =  2911.6646   Anisotropy =  1106.4466

      2  P    Isotropic =   287.0395   Anisotropy =    39.3537

      3  P    Isotropic =   278.3574   Anisotropy =    45.4937

      4  C    Isotropic =   155.9500   Anisotropy =    34.8891

      5  H    Isotropic =    28.4935   Anisotropy =     8.8853

      6  H    Isotropic =    29.2801   Anisotropy =     5.9619

      7  C    Isotropic =   172.4790   Anisotropy =    21.0505

      8  H    Isotropic =    30.4010   Anisotropy =     8.6869

      9  H    Isotropic =    30.1023   Anisotropy =    13.2430

     10  H    Isotropic =    30.1279   Anisotropy =     7.6602

     11  C    Isotropic =   150.6670   Anisotropy =    32.0259

     12  H    Isotropic =    28.9194   Anisotropy =     7.9841

     13  C    Isotropic =   164.8128   Anisotropy =    23.1539

     14  H    Isotropic =    29.1795   Anisotropy =     9.0900

     15  H    Isotropic =    29.8536   Anisotropy =     6.1774

     16  C    Isotropic =   174.5672   Anisotropy =    20.3279

     17  H    Isotropic =    30.8215   Anisotropy =    12.1383

     18  H    Isotropic =    31.6851   Anisotropy =    12.4221

     19  H    Isotropic =    30.9432   Anisotropy =     9.1385

     20  C    Isotropic =   156.2797   Anisotropy =    20.8196

     21  H    Isotropic =    29.2538   Anisotropy =     9.7413

     22  H    Isotropic =    29.1864   Anisotropy =     8.5874

     23  C    Isotropic =   171.3457   Anisotropy =    18.2395

     24  H    Isotropic =    30.5670   Anisotropy =     9.4351

     25  H    Isotropic =    30.2147   Anisotropy =     5.8970

     26  H    Isotropic =    30.0486   Anisotropy =    13.0095

     27  C    Isotropic =   163.7787   Anisotropy =    30.1244

     28  H    Isotropic =    30.5884   Anisotropy =    10.4256

     29  H    Isotropic =    30.2400   Anisotropy =     6.2507

     30  C    Isotropic =   177.3474   Anisotropy =    18.2109

     31  H    Isotropic =    30.5781   Anisotropy =    12.7847

     32  H    Isotropic =    30.7082   Anisotropy =     9.9058

     33  H    Isotropic =    30.7910   Anisotropy =     9.8147

     34  C    Isotropic =   157.6678   Anisotropy =    23.2541

     35  H    Isotropic =    29.3507   Anisotropy =     9.6236

     36  H    Isotropic =    28.7064   Anisotropy =    10.5064

     37  C    Isotropic =   171.2255   Anisotropy =    18.1318

     38  H    Isotropic =    30.0430   Anisotropy =    13.3715

     39  H    Isotropic =    30.2396   Anisotropy =     5.0845

     40  H    Isotropic =    30.4512   Anisotropy =     8.9017

     41  Sn   Isotropic =  2134.9213   Anisotropy =   816.0255

     42  Cl   Isotropic =   757.6467   Anisotropy =   320.5780

     43  Cl   Isotropic =   749.1273   Anisotropy =   294.8742

     44  Cl   Isotropic =   753.5401   Anisotropy =   295.4578

     45  C    Isotropic =   170.3777   Anisotropy =    21.5387

     46  H    Isotropic =    29.9906   Anisotropy =    12.2691

     47  H    Isotropic =    30.2186   Anisotropy =     9.3067

     48  H    Isotropic =    30.3621   Anisotropy =     8.5081

     49  H    Isotropic =    28.3481   Anisotropy =     9.4378

     50  C    Isotropic =   -21.1384   Anisotropy =   240.2937

     51  C    Isotropic =    39.7792   Anisotropy =   163.8990

     52  C    Isotropic =    42.3313   Anisotropy =   159.5290

     53  C    Isotropic =    62.8729   Anisotropy =   172.1767

     54  H    Isotropic =    23.4040   Anisotropy =    13.4951

     55  C    Isotropic =    61.4643   Anisotropy =   182.1261

     56  H    Isotropic =    23.5756   Anisotropy =    13.7257

     57  C    Isotropic =    35.6862   Anisotropy =   117.0397

     58  H    Isotropic =    23.5439   Anisotropy =     6.3627

     59  H    Isotropic =    23.4621   Anisotropy =     6.3004

     60  O    Isotropic =  -263.4743   Anisotropy =   656.5898

     61  O    Isotropic =  -255.4346   Anisotropy =   663.5192

     62  N    Isotropic =  -119.5039   Anisotropy =   239.5056

 The electronic state is 1-A.
 Alpha  occ. eigenvalues -- ********************-427.54284-414.87334-414.87295
 Alpha  occ. eigenvalues -- -414.87007-149.65452-141.93264-141.93261-141.93190
 Alpha  occ. eigenvalues -- -100.55737-100.55697-100.55568 -99.92325 -92.08188
 Alpha  occ. eigenvalues --  -92.08071 -92.07694 -79.04071 -79.03952 -79.03739
 Alpha  occ. eigenvalues --  -79.03682 -79.03631 -76.30253 -76.30116 -28.81820
 Alpha  occ. eigenvalues --  -25.16454 -25.16448 -25.16219 -20.83796 -18.78819
 Alpha  occ. eigenvalues --  -18.78702 -17.71350 -17.71350 -17.71196 -17.71193
 Alpha  occ. eigenvalues --  -17.71147 -17.40650 -17.40431 -17.39627 -14.21918
 Alpha  occ. eigenvalues --  -11.59037 -11.58617 -11.58172 -11.58065 -11.57965
 Alpha  occ. eigenvalues --   -9.95185  -9.92020  -9.91824  -9.91778  -9.91145
 Alpha  occ. eigenvalues --   -9.90995  -9.90964  -9.90929  -9.90928  -9.90902
 Alpha  occ. eigenvalues --   -9.90875  -9.90870  -9.89230  -9.89191  -9.89187
 Alpha  occ. eigenvalues --   -9.89172  -9.89089  -9.88917  -9.13600  -9.13558
 Alpha  occ. eigenvalues --   -9.13426  -6.97361  -6.97318  -6.97188  -6.96804
 Alpha  occ. eigenvalues --   -6.96793  -6.96765  -6.96749  -6.96631  -6.96616
 Alpha  occ. eigenvalues --   -6.33252  -6.33156  -4.55783  -4.55773  -4.55681
 Alpha  occ. eigenvalues --   -4.55667  -4.55517  -4.55429  -4.50510  -3.23957
 Alpha  occ. eigenvalues --   -3.23933  -3.23527  -3.13905  -3.13871  -3.13395
 Alpha  occ. eigenvalues --   -3.13097  -3.12961  -3.12879  -3.12836  -2.86747
 Alpha  occ. eigenvalues --   -1.81801  -1.81598  -1.79003  -1.14581  -1.02992
 Alpha  occ. eigenvalues --   -1.02984  -1.02608  -1.02580  -1.02477  -0.97783
 Alpha  occ. eigenvalues --   -0.80857  -0.73866  -0.73661  -0.72993  -0.72286
 Alpha  occ. eigenvalues --   -0.70766  -0.70675  -0.69807  -0.69618  -0.69575
 Alpha  occ. eigenvalues --   -0.69386  -0.69313  -0.62915  -0.61513  -0.61294
 Alpha  occ. eigenvalues --   -0.57497  -0.57119  -0.56711  -0.56475  -0.55794
 Alpha  occ. eigenvalues --   -0.53276  -0.50873  -0.49347  -0.49190  -0.48553
 Alpha  occ. eigenvalues --   -0.46774  -0.43650  -0.43029  -0.42802  -0.42657
 Alpha  occ. eigenvalues --   -0.42396  -0.42002  -0.41611  -0.41062  -0.40743
 Alpha  occ. eigenvalues --   -0.40444  -0.39093  -0.38845  -0.38488  -0.38203
 Alpha  occ. eigenvalues --   -0.37906  -0.37496  -0.37057  -0.36836  -0.35496
 Alpha  occ. eigenvalues --   -0.35324  -0.35072  -0.34264  -0.33817  -0.33776
 Alpha  occ. eigenvalues --   -0.33617  -0.33218  -0.32909  -0.32447  -0.32354
 Alpha  occ. eigenvalues --   -0.32082  -0.31946  -0.31815  -0.31623  -0.31171
 Alpha  occ. eigenvalues --   -0.30945  -0.30708  -0.29328  -0.29002  -0.28632
 Alpha  occ. eigenvalues --   -0.28549  -0.28439  -0.27890  -0.27645  -0.27528
 Alpha  occ. eigenvalues --   -0.27047  -0.26392  -0.26154  -0.26010  -0.25971
 Alpha  occ. eigenvalues --   -0.25819  -0.24829  -0.24790  -0.24423  -0.22785
 Alpha  occ. eigenvalues --   -0.22326  -0.20657
 Alpha virt. eigenvalues --   -0.12325  -0.08556  -0.06541  -0.06177  -0.04873
 Alpha virt. eigenvalues --   -0.03560  -0.03218  -0.02420  -0.01849  -0.01610
 Alpha virt. eigenvalues --   -0.00695  -0.00428  -0.00305  -0.00032   0.00611

 Mulliken charges:
               1
     1  Pt   0.469939
     2  P    0.031535
     3  P    0.219491
     4  C   -0.340224
     5  H    0.089806
     6  H    0.094275
     7  C   -0.181557
     8  H    0.110490
     9  H    0.137479
    10  H    0.114281
    11  C   -0.318213
    12  H    0.096422
    13  C   -0.341404
    14  H    0.112814
    15  H    0.090458
    16  C   -0.093884
    17  H    0.118556
    18  H    0.057183
    19  H    0.097434
    20  C   -0.450759
    21  H    0.112771
    22  H    0.087152
    23  C   -0.106071
    24  H    0.105093
    25  H    0.075609
    26  H    0.129459
    27  C   -0.402204
    28  H    0.071824
    29  H    0.087575
    30  C   -0.189680
    31  H    0.138926
    32  H    0.114922
    33  H    0.115882
    34  C   -0.438436
    35  H    0.103339
    36  H    0.082665
    37  C   -0.091021
    38  H    0.138204
    39  H    0.072755
    40  H    0.098981
    41  Sn   0.311093
    42  Cl  -0.290100
    43  Cl  -0.261198
    44  Cl  -0.236522
    45  C   -0.174189
    46  H    0.133049
    47  H    0.117743
    48  H    0.111585
    49  H    0.079894
    50  C    0.072110
    51  C    0.029706
    52  C   -0.035671
    53  C   -0.157385
    54  H    0.049776
    55  C   -0.317368
    56  H    0.067527
    57  C    0.000810
    58  H    0.114996
    59  H    0.117853
    60  O   -0.071094
    61  O   -0.079087
    62  N   -0.005392
 Sum of Mulliken charges =   0.00000

 Dipole moment (field-independent basis, Debye):
    X=              5.4747    Y=              0.8035    Z=              0.0194  Tot=              5.5334
 Quadrupole moment (field-independent basis, Debye-Ang):
   XX=           -364.9120   YY=           -216.1457   ZZ=           -248.4274
   XY=            -10.0114   XZ=             -2.1449   YZ=              0.8966

 Normal termination of Gaussian 09 at Mon Nov  4 05:56:15 2019.
