 Gaussian 09, Revision A.02,
 Gaussian 09:  EM64L-G09RevA.02 11-Jun-2009

 ----------------------------------------------------------------------
 #PBEPBE/gen scf=(maxcycle=500,conver=4) NMR=GIAO Scrf=(solvent=Dichlor
 omethane)
 ----------------------------------------------------------------------

 ------------
 estrutura 47
 ------------
 Symbolic Z-matrix:
 Charge =  0 Multiplicity = 1

                         Standard orientation:
 ---------------------------------------------------------------------
 Center     Atomic      Atomic             Coordinates (Angstroms)
 Number     Number       Type             X           Y           Z
 ---------------------------------------------------------------------
      1         78           0        1.455934    0.265042   -0.959050
      2         17           0       -0.372335    1.584959   -2.102149
      3         17           0        0.304519   -1.634816   -2.100689
      4         50           0        3.075464   -1.348480    0.278740
      5         17           0        3.069534   -3.657794   -0.373288
      6         17           0        2.681896   -1.613551    2.650684
      7         17           0        5.441316   -0.883482    0.263744
      8         78           0       -1.332404   -0.262162   -0.650070
      9         50           0       -3.124957    1.307313    0.360504
     10         17           0       -2.614077    3.659636    0.314349
     11         17           0       -3.781975    1.138291    2.673125
     12         17           0       -5.246396    1.312190   -0.783547
     13         33           0        2.297018    2.266993    0.155376
     14         33           0       -2.095234   -2.288675    0.370314
     15          6           0        4.205398    2.575832   -0.240566
     16          1           0        4.207856    3.378401   -0.992562
     17          1           0        4.511326    1.651305   -0.752962
     18          6           0        5.125500    2.886547    0.938746
     19          1           0        6.150485    3.035318    0.564915
     20          1           0        4.830771    3.801348    1.474871
     21          1           0        5.157998    2.055871    1.659242
     22          6           0        1.995448    2.055743    2.081237
     23          1           0        2.302937    2.978934    2.593040
     24          1           0        2.677763    1.254503    2.404459
     25          6           0        0.536516    1.684611    2.367287
     26          1           0        0.177548    0.909322    1.670401
     27          1           0        0.433952    1.300942    3.394064
     28          1           0       -0.133093    2.552906    2.265279
     29          6           0        1.373517    3.916764   -0.363957
     30          1           0        1.497146    4.000584   -1.454636
     31          1           0        0.303705    3.751175   -0.173321
     32          6           0        1.903762    5.150556    0.363988
     33          1           0        2.970938    5.330999    0.163020
     34          1           0        1.351190    6.041056    0.022537
     35          1           0        1.768331    5.080937    1.455579
     36          6           0       -3.468986   -2.347657    1.764141
     37          1           0       -3.358861   -3.339290    2.231835
     38          1           0       -3.180326   -1.592514    2.508892
     39          6           0       -4.900620   -2.136227    1.275416
     40          1           0       -5.036554   -1.170105    0.766042
     41          1           0       -5.221292   -2.932319    0.586249
     42          1           0       -5.586521   -2.146621    2.137862
     43          6           0       -2.723193   -3.339109   -1.178207
     44          1           0       -3.366123   -4.153593   -0.809960
     45          1           0       -1.807134   -3.789661   -1.588509
     46          6           0       -3.412587   -2.454119   -2.225798
     47          1           0       -2.820855   -1.536201   -2.375757
     48          1           0       -3.507964   -2.982807   -3.185990
     49          1           0       -4.419672   -2.144250   -1.903108
     50          6           0       -0.473618   -3.115011    1.085388
     51          1           0        0.170139   -3.245983    0.202777
     52          1           0       -0.009524   -2.344617    1.715359
     53          6           0       -0.662311   -4.425224    1.843772
     54          1           0       -1.179392   -5.186912    1.240226
     55          1           0        0.326466   -4.832588    2.114462
     56          1           0       -1.225931   -4.285486    2.780512
 ---------------------------------------------------------------------

 SCF Done:  E(RPBE-PBE) =  -54799.7007020     A.U. after   12 cycles

  1  Pt   Isotropic =  2638.3688   Anisotropy =  2832.9380

  2  Cl   Isotropic =   917.1401   Anisotropy =   165.8181

  3  Cl   Isotropic =   933.9309   Anisotropy =   236.2077

  4  Sn   Isotropic =  2078.4079   Anisotropy =   807.6439

  5  Cl   Isotropic =   740.1535   Anisotropy =   330.3753

  6  Cl   Isotropic =   741.7739   Anisotropy =   335.8471

  7  Cl   Isotropic =   757.1213   Anisotropy =   318.7115

  8  Pt   Isotropic =  2948.1462   Anisotropy =  2863.5329

  9  Sn   Isotropic =  2078.0157   Anisotropy =   810.3435

 10  Cl   Isotropic =   724.1482   Anisotropy =   356.4398

 11  Cl   Isotropic =   753.7423   Anisotropy =   339.0421

 12  Cl   Isotropic =   693.0848   Anisotropy =   409.4625

 13  As   Isotropic =   898.8316   Anisotropy =   298.8481

 14  As   Isotropic =   831.4585   Anisotropy =   376.3827

 15  C    Isotropic =   148.3029   Anisotropy =    44.6350

 16  H    Isotropic =    29.1706   Anisotropy =    10.6442

 17  H    Isotropic =    28.5201   Anisotropy =     6.3586

 18  C    Isotropic =   171.8501   Anisotropy =    23.6937

 19  H    Isotropic =    30.1559   Anisotropy =    14.1788

 20  H    Isotropic =    30.4384   Anisotropy =     9.8154

 21  H    Isotropic =    29.9105   Anisotropy =     5.6756

 22  C    Isotropic =   159.3691   Anisotropy =    13.8211

 23  H    Isotropic =    29.0797   Anisotropy =    12.1763

 24  H    Isotropic =    29.1257   Anisotropy =     7.5309

 25  C    Isotropic =   167.9379   Anisotropy =    15.7201

 26  H    Isotropic =    29.0261   Anisotropy =    12.2188

 27  H    Isotropic =    29.7729   Anisotropy =     9.7051

 28  H    Isotropic =    29.9335   Anisotropy =     8.6771

 29  C    Isotropic =   149.7678   Anisotropy =    31.9052

 30  H    Isotropic =    29.2695   Anisotropy =     7.1327

 31  H    Isotropic =    28.4233   Anisotropy =    10.6452

 32  C    Isotropic =   172.9548   Anisotropy =    25.1785

 33  H    Isotropic =    30.3635   Anisotropy =    10.5971

 34  H    Isotropic =    29.9631   Anisotropy =    13.4357

 35  H    Isotropic =    30.2908   Anisotropy =     8.7236

 36  C    Isotropic =   155.7753   Anisotropy =    24.2093

 37  H    Isotropic =    28.9337   Anisotropy =    11.1111

 38  H    Isotropic =    28.7465   Anisotropy =     6.6909

 39  C    Isotropic =   172.2968   Anisotropy =    14.8539

 40  H    Isotropic =    29.7661   Anisotropy =     8.9822

 41  H    Isotropic =    30.3074   Anisotropy =    10.5191

 42  H    Isotropic =    29.9345   Anisotropy =    13.6280

 43  C    Isotropic =   153.7405   Anisotropy =    33.7955

 44  H    Isotropic =    29.3652   Anisotropy =    12.3741

 45  H    Isotropic =    29.1774   Anisotropy =     8.1619

 46  C    Isotropic =   165.2178   Anisotropy =    23.8299

 47  H    Isotropic =    28.5844   Anisotropy =    16.5839

 48  H    Isotropic =    30.0437   Anisotropy =    14.2241

 49  H    Isotropic =    30.2768   Anisotropy =     8.0380

 50  C    Isotropic =   144.1384   Anisotropy =    37.6732

 51  H    Isotropic =    28.2047   Anisotropy =     9.1193

 52  H    Isotropic =    28.5396   Anisotropy =     9.2621

 53  C    Isotropic =   172.5669   Anisotropy =    23.3299

 54  H    Isotropic =    30.3206   Anisotropy =    11.1234

 55  H    Isotropic =    29.7940   Anisotropy =    11.1117

 56  H    Isotropic =    30.1411   Anisotropy =    10.4542

 The electronic state is 1-A.
 Alpha  occ. eigenvalues -- ****************************************-427.54648
 Alpha  occ. eigenvalues -- -427.54629-422.30252-422.29756-414.87700-414.87685
 Alpha  occ. eigenvalues -- -414.87652-414.87629-414.87376-414.87362-149.67325
 Alpha  occ. eigenvalues -- -149.67091-141.95134-141.95131-141.95065-141.94899
 Alpha  occ. eigenvalues -- -141.94892-141.94830-100.57251-100.57248-100.56995
 Alpha  occ. eigenvalues -- -100.56962-100.56906-100.56845-100.56827-100.56401
 Alpha  occ. eigenvalues --  -99.92711 -99.92694 -92.08586 -92.08581 -92.08487
 Alpha  occ. eigenvalues --  -92.08452 -92.08035 -92.08025 -79.04478 -79.04452
 Alpha  occ. eigenvalues --  -79.04349 -79.04333 -79.04098 -79.04091 -79.04049
 Alpha  occ. eigenvalues --  -79.04027 -79.03980 -79.03962 -53.01956 -53.01473
 Alpha  occ. eigenvalues --  -47.61209 -47.61189 -47.61180 -47.60715 -47.60711
 Alpha  occ. eigenvalues --  -47.60697 -28.83722 -28.83527 -25.18351 -25.18345
 Alpha  occ. eigenvalues --  -25.18158 -25.18139 -25.18130 -25.17938 -20.84174
 Alpha  occ. eigenvalues --  -20.84148 -17.73242 -17.73241 -17.73097 -17.73093
 Alpha  occ. eigenvalues --  -17.73050 -17.73037 -17.73036 -17.72900 -17.72889
 Alpha  occ. eigenvalues --  -17.72850 -17.41050 -17.41045 -17.40864 -17.40800
 Alpha  occ. eigenvalues --  -17.39917 -17.39909 -11.59488 -11.59434 -11.59027
 Alpha  occ. eigenvalues --  -11.59009 -11.58509 -11.58506 -11.58420 -11.58390
 Alpha  occ. eigenvalues --  -11.58275 -11.58247  -9.92235  -9.92231  -9.92031
 Alpha  occ. eigenvalues --   -9.91980  -9.91980  -9.91930  -9.89783  -9.89736
 Alpha  occ. eigenvalues --   -9.89670  -9.89568  -9.89533  -9.89319  -9.15061
 Alpha  occ. eigenvalues --   -9.15060  -9.14848  -9.14805  -9.14780  -9.14724
 Alpha  occ. eigenvalues --   -9.14579  -9.14193  -6.98872  -6.98864  -6.98655
 Alpha  occ. eigenvalues --   -6.98638  -6.98594  -6.98547  -6.98251  -6.98246
 Alpha  occ. eigenvalues --   -6.98235  -6.98235  -6.98212  -6.98046  -6.98024
 Alpha  occ. eigenvalues --   -6.98013  -6.97989  -6.97958  -6.97957  -6.97938
 Alpha  occ. eigenvalues --   -6.97898  -6.97877  -6.97814  -6.97676  -6.97666
 Alpha  occ. eigenvalues --   -6.97264  -6.74140  -6.73681  -4.86927  -4.86880
 Alpha  occ. eigenvalues --   -4.86875  -4.86458  -4.86447  -4.86399  -4.52457
 Alpha  occ. eigenvalues --   -4.52316  -3.25889  -3.25879  -3.25763  -3.25718
 Alpha  occ. eigenvalues --   -3.25511  -3.25386  -3.14338  -3.14309  -3.14299
 Alpha  occ. eigenvalues --   -3.14265  -3.13777  -3.13751  -3.13457  -3.13454
 Alpha  occ. eigenvalues --   -3.13291  -3.13284  -3.13210  -3.13174  -3.13150
 Alpha  occ. eigenvalues --   -3.13125  -2.87210  -2.87142  -1.82432  -1.82298
 Alpha  occ. eigenvalues --   -1.82069  -1.81886  -1.79603  -1.79334  -1.54747
 Alpha  occ. eigenvalues --   -1.54729  -1.54706  -1.54681  -1.54648  -1.54300
 Alpha  occ. eigenvalues --   -1.54288  -1.54229  -1.54206  -1.54187  -1.04989
 Alpha  occ. eigenvalues --   -1.04959  -1.04854  -1.04829  -1.04586  -1.04521
 Alpha  occ. eigenvalues --   -1.04492  -1.04464  -1.04406  -1.04370  -0.73952
 Alpha  occ. eigenvalues --   -0.73804  -0.73565  -0.73464  -0.72259  -0.72193
 Alpha  occ. eigenvalues --   -0.72049  -0.71970  -0.71897  -0.71361  -0.70321
 Alpha  occ. eigenvalues --   -0.70115  -0.70042  -0.69962  -0.61713  -0.61428
 Alpha  occ. eigenvalues --   -0.57270  -0.57253  -0.56838  -0.56803  -0.50652
 Alpha  occ. eigenvalues --   -0.50197  -0.43922  -0.43769  -0.42891  -0.42818
 Alpha  occ. eigenvalues --   -0.42496  -0.42200  -0.41417  -0.40844  -0.40524
 Alpha  occ. eigenvalues --   -0.39543  -0.38639  -0.38538  -0.38406  -0.38134
 Alpha  occ. eigenvalues --   -0.36584  -0.36133  -0.35626  -0.35542  -0.35521
 Alpha  occ. eigenvalues --   -0.35301  -0.35206  -0.34976  -0.34206  -0.34122
 Alpha  occ. eigenvalues --   -0.34014  -0.33922  -0.33816  -0.33538  -0.33419
 Alpha  occ. eigenvalues --   -0.32850  -0.32657  -0.32543  -0.32264  -0.32020
 Alpha  occ. eigenvalues --   -0.31938  -0.30751  -0.30542  -0.30253  -0.29820
 Alpha  occ. eigenvalues --   -0.29406  -0.29057  -0.28901  -0.28812  -0.28716
 Alpha  occ. eigenvalues --   -0.28631  -0.28525  -0.28424  -0.27750  -0.27677
 Alpha  occ. eigenvalues --   -0.27561  -0.27360  -0.27232  -0.27119  -0.27059
 Alpha  occ. eigenvalues --   -0.26969  -0.26670  -0.25883  -0.25347  -0.24787
 Alpha  occ. eigenvalues --   -0.24456  -0.24307  -0.24179  -0.23018  -0.21451
 Alpha virt. eigenvalues --   -0.13993  -0.13591  -0.07312  -0.05427  -0.04851
 Alpha virt. eigenvalues --   -0.04654  -0.04504  -0.03865  -0.02415  -0.02122
 Alpha virt. eigenvalues --   -0.01207  -0.01179  -0.01008  -0.00797  -0.00104

 Mulliken atomic charges:
              1
     1  Pt  -0.315309
     2  Cl  -0.442055
     3  Cl  -0.373925
     4  Sn   0.302599
     5  Cl  -0.149917
     6  Cl  -0.217697
     7  Cl  -0.153315
     8  Pt  -0.214091
     9  Sn   0.364462
    10  Cl  -0.166658
    11  Cl  -0.193657
    12  Cl  -0.184913
    13  As   0.566772
    14  As   0.494657
    15  C   -0.461766
    16  H    0.139205
    17  H    0.131304
    18  C   -0.049000
    19  H    0.134592
    20  H    0.117930
    21  H    0.096816
    22  C   -0.452793
    23  H    0.148808
    24  H    0.133425
    25  C    0.016017
    26  H    0.054591
    27  H    0.108320
    28  H    0.078456
    29  C   -0.370656
    30  H    0.139258
    31  H    0.129795
    32  C   -0.143609
    33  H    0.118277
    34  H    0.144806
    35  H    0.114034
    36  C   -0.452708
    37  H    0.148128
    38  H    0.141052
    39  C   -0.036024
    40  H    0.060328
    41  H    0.117033
    42  H    0.133264
    43  C   -0.406005
    44  H    0.142433
    45  H    0.146765
    46  C   -0.063922
    47  H    0.071832
    48  H    0.123694
    49  H    0.099606
    50  C   -0.340255
    51  H    0.129125
    52  H    0.110924
    53  C   -0.138700
    54  H    0.116282
    55  H    0.134102
    56  H    0.118281
 Sum of Mulliken atomic charges =   0.00000

 Dipole moment (field-independent basis, Debye):
    X=              1.2181    Y=              0.1653    Z=              2.1206  Tot=              2.4512
 Quadrupole moment (field-independent basis, Debye-Ang):
   XX=           -362.2807   YY=           -310.0503   ZZ=           -341.2618
   XY=             75.5869   XZ=             -3.6459   YZ=             -1.9489

 Normal termination of Gaussian 09 at Mon Jun 17 20:19:33 2019.
