 Gaussian 09, Revision A.02,
 Gaussian 09:  EM64L-G09RevA.02 11-Jun-2009

 ----------------------------------------------------------------------
 #PBEPBE/gen scf=(maxcycle=500,conver=4) NMR=GIAO Scrf=(solvent=Dichlor
 omethane)
 ----------------------------------------------------------------------

 ------------
 estrutura 19
 ------------
 Symbolic Z-matrix:
 Charge = -1 Multiplicity = 1

                         Standard orientation:
 ---------------------------------------------------------------------
 Center     Atomic      Atomic             Coordinates (Angstroms)
 Number     Number       Type             X           Y           Z
 ---------------------------------------------------------------------
      1         78           0       -0.023152    0.090386   -0.075528
      2         50           0        0.133386   -1.356127   -2.395693
      3         50           0       -0.054460   -1.299517    2.318538
      4         50           0       -0.103196    2.792624   -0.059405
      5         15           0        2.417204    0.137609    0.054858
      6         15           0       -2.476806   -0.105206   -0.141806
      7         17           0        2.116269   -1.298713   -3.856846
      8         17           0       -0.033509   -3.803030   -2.201471
      9         17           0       -1.537927   -1.004207   -4.172671
     10         17           0       -1.709817   -3.089507    2.708688
     11         17           0       -0.500597    0.061151    4.316873
     12         17           0        1.889194   -2.540488    3.191757
     13         17           0       -1.657728    3.952521    1.449593
     14         17           0       -0.571898    3.945844   -2.183314
     15         17           0        1.866147    4.143803    0.543410
     16          6           0       -3.466591    0.877852   -1.370980
     17          1           0       -4.401398    0.301050   -1.467095
     18          1           0       -2.951743    0.780389   -2.338962
     19          6           0       -3.802004    2.344576   -1.046501
     20          1           0       -3.879326    2.496146    0.039233
     21          1           0       -2.985592    2.995992   -1.387201
     22          6           0       -5.112843    2.797863   -1.699946
     23          1           0       -5.361106    3.828441   -1.398764
     24          1           0       -5.051798    2.774394   -2.802988
     25          1           0       -5.951592    2.151600   -1.398230
     26          6           0       -2.890956   -1.848179   -0.640013
     27          1           0       -2.680191   -1.871941   -1.722464
     28          1           0       -2.152650   -2.499437   -0.151372
     29          6           0       -4.301750   -2.401058   -0.398827
     30          1           0       -4.497175   -2.467961    0.684202
     31          1           0       -5.063915   -1.725971   -0.820487
     32          6           0       -4.462249   -3.787936   -1.029565
     33          1           0       -3.736366   -4.503657   -0.611393
     34          1           0       -5.472480   -4.188426   -0.852351
     35          1           0       -4.302061   -3.747160   -2.120137
     36          6           0       -3.240787    0.186617    1.524299
     37          1           0       -2.915411   -0.683676    2.116094
     38          1           0       -2.736154    1.063897    1.955789
     39          6           0       -4.777798    0.327384    1.621789
     40          1           0       -5.044289    1.395299    1.618093
     41          1           0       -5.274976   -0.103841    0.739511
     42          6           0       -5.339733   -0.336989    2.881881
     43          1           0       -4.903821    0.096132    3.797124
     44          1           0       -6.434221   -0.214316    2.939091
     45          1           0       -5.122585   -1.418164    2.893005
     46          6           0        2.894301    0.829694    1.726008
     47          1           0        2.817378   -0.021727    2.421866
     48          1           0        2.049038    1.489824    1.957142
     49          6           0        4.197600    1.618814    1.975632
     50          1           0        3.936971    2.402964    2.704742
     51          1           0        4.501142    2.168361    1.072374
     52          6           0        5.373899    0.820622    2.538754
     53          1           0        6.208728    1.494987    2.789754
     54          1           0        5.084888    0.291120    3.462023
     55          1           0        5.760092    0.069927    1.834699
     56          6           0        3.142209    1.170954   -1.322165
     57          1           0        3.107395    2.214413   -0.969871
     58          1           0        2.383098    1.087441   -2.112832
     59          6           0        4.511733    0.838582   -1.949251
     60          1           0        4.484435    1.282170   -2.959108
     61          1           0        4.597221   -0.244852   -2.124350
     62          6           0        5.759587    1.365733   -1.241379
     63          1           0        5.931933    0.896087   -0.260603
     64          1           0        6.653228    1.169339   -1.856119
     65          1           0        5.700119    2.454995   -1.083933
     66          6           0        3.058477   -1.595245   -0.147016
     67          1           0        3.048941   -1.774173   -1.235936
     68          1           0        2.290204   -2.251840    0.284899
     69          6           0        4.423344   -1.976099    0.442031
     70          1           0        5.213858   -1.321583    0.045896
     71          1           0        4.400402   -1.828525    1.532727
     72          6           0        4.774134   -3.436658    0.145872
     73          1           0        4.838126   -3.623511   -0.939619
     74          1           0        5.744799   -3.704886    0.590754
     75          1           0        4.014573   -4.118964    0.562128
 ---------------------------------------------------------------------

 SCF Done:  E(RPBE-PBE) =  -40584.0798011     A.U. after   11 cycles

  1  Pt   Isotropic =  3122.1331   Anisotropy =  1273.5549

  2  Sn   Isotropic =  2171.0515   Anisotropy =   821.4091

  3  Sn   Isotropic =  2171.2464   Anisotropy =   802.1011

  4  Sn   Isotropic =  2140.6512   Anisotropy =   852.8019

  5  P    Isotropic =   226.9284   Anisotropy =    69.5221

  6  P    Isotropic =   252.7762   Anisotropy =    68.5629

  7  Cl   Isotropic =   743.0969   Anisotropy =   300.5844

  8  Cl   Isotropic =   725.9819   Anisotropy =   366.0380

  9  Cl   Isotropic =   736.8151   Anisotropy =   336.0735

 10  Cl   Isotropic =   738.8115   Anisotropy =   323.3924

 11  Cl   Isotropic =   724.0039   Anisotropy =   373.3351

 12  Cl   Isotropic =   735.5963   Anisotropy =   321.9011

 13  Cl   Isotropic =   707.7761   Anisotropy =   367.2877

 14  Cl   Isotropic =   709.5018   Anisotropy =   393.4892

 15  Cl   Isotropic =   722.8535   Anisotropy =   321.9499

 16  C    Isotropic =   147.7181   Anisotropy =    36.5779

 17  H    Isotropic =    29.0692   Anisotropy =     8.0494

 18  H    Isotropic =    28.8565   Anisotropy =     7.0925

 19  C    Isotropic =   157.5994   Anisotropy =    11.6309

 20  H    Isotropic =    29.8592   Anisotropy =     4.2748

 21  H    Isotropic =    28.9230   Anisotropy =    12.2157

 22  C    Isotropic =   166.3333   Anisotropy =    34.3180

 23  H    Isotropic =    30.1530   Anisotropy =    12.6248

 24  H    Isotropic =    30.4146   Anisotropy =    10.2925

 25  H    Isotropic =    30.7301   Anisotropy =     9.4132

 26  C    Isotropic =   129.4902   Anisotropy =    50.8344

 27  H    Isotropic =    28.7238   Anisotropy =     8.5490

 28  H    Isotropic =    28.5636   Anisotropy =     6.7350

 29  C    Isotropic =   155.7923   Anisotropy =    18.3374

 30  H    Isotropic =    29.5558   Anisotropy =     5.4831

 31  H    Isotropic =    29.3788   Anisotropy =     6.5191

 32  C    Isotropic =   164.5149   Anisotropy =    34.3382

 33  H    Isotropic =    30.4565   Anisotropy =     6.6190

 34  H    Isotropic =    30.0486   Anisotropy =    13.7982

 35  H    Isotropic =    30.5917   Anisotropy =     7.9313

 36  C    Isotropic =   141.2130   Anisotropy =    57.8211

 37  H    Isotropic =    28.8474   Anisotropy =     9.7195

 38  H    Isotropic =    28.3955   Anisotropy =     5.8992

 39  C    Isotropic =   158.7163   Anisotropy =    27.2819

 40  H    Isotropic =    29.5302   Anisotropy =     7.3835

 41  H    Isotropic =    29.6148   Anisotropy =     4.6795

 42  C    Isotropic =   165.7456   Anisotropy =    32.0350

 43  H    Isotropic =    30.3426   Anisotropy =     8.2916

 44  H    Isotropic =    30.3500   Anisotropy =    14.0383

 45  H    Isotropic =    30.3673   Anisotropy =     5.6239

 46  C    Isotropic =   137.0286   Anisotropy =    51.9418

 47  H    Isotropic =    28.4645   Anisotropy =     7.9854

 48  H    Isotropic =    28.3634   Anisotropy =    10.1772

 49  C    Isotropic =   157.8457   Anisotropy =    26.3161

 50  H    Isotropic =    29.3279   Anisotropy =     8.7305

 51  H    Isotropic =    29.5504   Anisotropy =     3.8595

 52  C    Isotropic =   165.6647   Anisotropy =    26.4392

 53  H    Isotropic =    30.3097   Anisotropy =    13.6993

 54  H    Isotropic =    30.5578   Anisotropy =     8.4589

 55  H    Isotropic =    30.2272   Anisotropy =     4.0677

 56  C    Isotropic =   139.8024   Anisotropy =    47.3198

 57  H    Isotropic =    28.1461   Anisotropy =     7.9501

 58  H    Isotropic =    28.3978   Anisotropy =     8.8157

 59  C    Isotropic =   157.9346   Anisotropy =    22.5264

 60  H    Isotropic =    29.3767   Anisotropy =     9.7576

 61  H    Isotropic =    29.5311   Anisotropy =     4.3325

 62  C    Isotropic =   166.3353   Anisotropy =    27.2496

 63  H    Isotropic =    30.3885   Anisotropy =     5.0075

 64  H    Isotropic =    30.2271   Anisotropy =    13.4129

 65  H    Isotropic =    30.4612   Anisotropy =     8.5829

 66  C    Isotropic =   136.8801   Anisotropy =    53.4133

 67  H    Isotropic =    28.3073   Anisotropy =     6.9827

 68  H    Isotropic =    28.9091   Anisotropy =     8.3380

 69  C    Isotropic =   152.7851   Anisotropy =    20.5951

 70  H    Isotropic =    29.9567   Anisotropy =     6.4782

 71  H    Isotropic =    29.3761   Anisotropy =     2.9295

 72  C    Isotropic =   165.7709   Anisotropy =    33.7110

 73  H    Isotropic =    30.4163   Anisotropy =     8.7076

 74  H    Isotropic =    30.1354   Anisotropy =    13.6038

 75  H    Isotropic =    30.4653   Anisotropy =     6.6703

 The electronic state is 1-A.
 Alpha  occ. eigenvalues -- ****************************************-427.55853
 Alpha  occ. eigenvalues -- -414.88940-414.88715-414.88697-149.64932-149.64931
 Alpha  occ. eigenvalues -- -149.64829-141.92745-141.92744-141.92736-141.92734
 Alpha  occ. eigenvalues -- -141.92678-141.92675-141.92640-141.92633-141.92573
 Alpha  occ. eigenvalues -- -100.54978-100.54924-100.54915-100.54892-100.54863
 Alpha  occ. eigenvalues -- -100.54808-100.54789-100.54735-100.54671 -99.93883
 Alpha  occ. eigenvalues --  -92.09840 -92.09410 -92.09382 -79.05617 -79.05445
 Alpha  occ. eigenvalues --  -79.05430 -79.05194 -79.05194 -76.31519 -76.31151
 Alpha  occ. eigenvalues --  -28.81310 -28.81304 -28.81209 -25.15942 -25.15931
 Alpha  occ. eigenvalues --  -25.15917 -25.15911 -25.15837 -25.15818 -25.15735
 Alpha  occ. eigenvalues --  -25.15732 -25.15635 -20.85335 -17.70823 -17.70823
 Alpha  occ. eigenvalues --  -17.70815 -17.70814 -17.70721 -17.70720 -17.70699
 Alpha  occ. eigenvalues --  -17.70693 -17.70683 -17.70681 -17.70650 -17.70647
 Alpha  occ. eigenvalues --  -17.70596 -17.70584 -17.70550 -17.42359 -17.41512
 Alpha  occ. eigenvalues --  -17.41453 -11.60514 -11.60014 -11.59982 -11.59520
 Alpha  occ. eigenvalues --  -11.59518  -9.90604  -9.90536  -9.90526  -9.90521
 Alpha  occ. eigenvalues --   -9.90329  -9.90207  -9.89424  -9.89381  -9.89318
 Alpha  occ. eigenvalues --   -9.89251  -9.89197  -9.88714  -9.87578  -9.87553
 Alpha  occ. eigenvalues --   -9.87430  -9.87419  -9.87408  -9.87379  -9.12830
 Alpha  occ. eigenvalues --   -9.12777  -9.12766  -9.12743  -9.12721  -9.12660
 Alpha  occ. eigenvalues --   -9.12641  -9.12578  -9.12516  -6.96595  -6.96540
 Alpha  occ. eigenvalues --   -6.96527  -6.96505  -6.96487  -6.96426  -6.96411
 Alpha  occ. eigenvalues --   -6.96343  -6.96283  -6.96033  -6.96022  -6.95982
 Alpha  occ. eigenvalues --   -6.95971  -6.95969  -6.95960  -6.95948  -6.95937
 Alpha  occ. eigenvalues --   -6.95922  -6.95914  -6.95868  -6.95847  -6.95842
 Alpha  occ. eigenvalues --   -6.95831  -6.95787  -6.95768  -6.95721  -6.95705
 Alpha  occ. eigenvalues --   -6.34360  -6.34019  -4.56860  -4.56854  -4.56730
 Alpha  occ. eigenvalues --   -4.56529  -4.56513  -4.56372  -4.50002  -4.49983
 Alpha  occ. eigenvalues --   -4.49904  -3.23450  -3.23429  -3.23382  -3.23369
 Alpha  occ. eigenvalues --   -3.23349  -3.23292  -3.23068  -3.23042  -3.22965
 Alpha  occ. eigenvalues --   -3.15360  -3.15168  -3.15131  -3.14664  -3.14663
 Alpha  occ. eigenvalues --   -3.14352  -3.14350  -2.88222  -1.83318  -1.81798
 Alpha  occ. eigenvalues --   -1.81611  -1.02434  -1.02428  -1.02416  -1.02415
 Alpha  occ. eigenvalues --   -1.02346  -1.02337  -1.02120  -1.02092  -1.02054
 Alpha  occ. eigenvalues --   -1.02034  -1.02016  -1.02001  -1.01964  -1.01947
 Alpha  occ. eigenvalues --   -1.01884  -0.74214  -0.73952  -0.71536  -0.71482
 Alpha  occ. eigenvalues --   -0.71380  -0.71309  -0.71211  -0.71057  -0.70981
 Alpha  occ. eigenvalues --   -0.69923  -0.69915  -0.69848  -0.69804  -0.69787
 Alpha  occ. eigenvalues --   -0.69738  -0.66263  -0.66067  -0.62219  -0.61994
 Alpha  occ. eigenvalues --   -0.61917  -0.61395  -0.55658  -0.55287  -0.53610
 Alpha  occ. eigenvalues --   -0.53398  -0.53243  -0.53029  -0.49129  -0.48118
 Alpha  occ. eigenvalues --   -0.43089  -0.42928  -0.42567  -0.41813  -0.41770
 Alpha  occ. eigenvalues --   -0.41582  -0.41271  -0.41042  -0.40864  -0.39444
 Alpha  occ. eigenvalues --   -0.39046  -0.39028  -0.38888  -0.38299  -0.37594
 Alpha  occ. eigenvalues --   -0.37366  -0.37034  -0.36633  -0.36397  -0.35743
 Alpha  occ. eigenvalues --   -0.35156  -0.34835  -0.34383  -0.33999  -0.33450
 Alpha  occ. eigenvalues --   -0.33134  -0.32628  -0.32245  -0.32037  -0.31914
 Alpha  occ. eigenvalues --   -0.31850  -0.31777  -0.31712  -0.31380  -0.31179
 Alpha  occ. eigenvalues --   -0.31137  -0.31064  -0.30829  -0.30609  -0.30393
 Alpha  occ. eigenvalues --   -0.30355  -0.30208  -0.30111  -0.29828  -0.29666
 Alpha  occ. eigenvalues --   -0.29438  -0.29212  -0.29079  -0.28942  -0.28790
 Alpha  occ. eigenvalues --   -0.28637  -0.28080  -0.27881  -0.27278  -0.27208
 Alpha  occ. eigenvalues --   -0.27111  -0.27049  -0.26852  -0.26820  -0.26706
 Alpha  occ. eigenvalues --   -0.26563  -0.26514  -0.26343  -0.25960  -0.25647
 Alpha  occ. eigenvalues --   -0.25513  -0.25446  -0.25372  -0.25275  -0.25226
 Alpha  occ. eigenvalues --   -0.25186  -0.25138  -0.24954  -0.23227  -0.19722
 Alpha  occ. eigenvalues --   -0.19581
 Alpha virt. eigenvalues --   -0.12080  -0.05957  -0.05742  -0.04684  -0.04505
 Alpha virt. eigenvalues --   -0.04262  -0.03151  -0.02801  -0.02424  -0.02401
 Alpha virt. eigenvalues --   -0.01273  -0.01115  -0.00155   0.00126   0.00223

 Mulliken atomic charges:
              1
     1  Pt  -0.327269
     2  Sn   0.442537
     3  Sn   0.450481
     4  Sn   0.470640
     5  P   -0.374241
     6  P   -0.266502
     7  Cl  -0.204593
     8  Cl  -0.281891
     9  Cl  -0.237700
    10  Cl  -0.235339
    11  Cl  -0.274391
    12  Cl  -0.205714
    13  Cl  -0.235496
    14  Cl  -0.264975
    15  Cl  -0.198174
    16  C   -0.194378
    17  H    0.062386
    18  H    0.065062
    19  C   -0.066970
    20  H    0.046936
    21  H    0.049613
    22  C   -0.254043
    23  H    0.132067
    24  H    0.131592
    25  H    0.118853
    26  C   -0.226181
    27  H    0.032063
    28  H    0.066768
    29  C   -0.097492
    30  H    0.074051
    31  H    0.077953
    32  C   -0.205283
    33  H    0.118549
    34  H    0.139872
    35  H    0.112732
    36  C   -0.130195
    37  H    0.018479
    38  H    0.068813
    39  C   -0.116248
    40  H    0.095851
    41  H    0.065734
    42  C   -0.224800
    43  H    0.119711
    44  H    0.140281
    45  H    0.102705
    46  C   -0.051300
    47  H    0.032758
    48  H    0.064039
    49  C   -0.211146
    50  H    0.100429
    51  H    0.060665
    52  C   -0.154927
    53  H    0.131194
    54  H    0.107723
    55  H    0.079467
    56  C   -0.143303
    57  H    0.056394
    58  H    0.072146
    59  C   -0.255284
    60  H    0.106706
    61  H    0.076273
    62  C   -0.092581
    63  H    0.068409
    64  H    0.128736
    65  H    0.099145
    66  C   -0.223669
    67  H    0.035249
    68  H    0.042709
    69  C    0.001117
    70  H    0.053207
    71  H    0.068526
    72  C   -0.199721
    73  H    0.115594
    74  H    0.137221
    75  H    0.112369
 Sum of Mulliken atomic charges =  -1.00000

 Dipole moment (field-independent basis, Debye):
    X=              0.3260    Y=             -0.3409    Z=              0.1597  Tot=              0.4980
 Quadrupole moment (field-independent basis, Debye-Ang):
   XX=           -341.4827   YY=           -467.2043   ZZ=           -467.8730
   XY=              4.7005   XZ=              3.4114   YZ=             -1.5230

 Normal termination of Gaussian 09 at Sun Jul  5 02:08:49 2020.
