 Gaussian 09, Revision D.01,
 Gaussian 09:  EM64L-G09RevD.01 24-Apr-2013

 ----------------------------------------------------------------------
 #PBEPBE/gen scf=(maxcycle=500,conver=3) NMR=GIAO Scrf=(solvent=Dichlor
 omethane)
 ----------------------------------------------------------------------

 ------------
 estrutura 95
 ------------
 Symbolic Z-matrix:
 Charge =  0 Multiplicity = 1

                         Standard orientation:
 ---------------------------------------------------------------------
 Center     Atomic      Atomic             Coordinates (Angstroms)
 Number     Number       Type             X           Y           Z
 ---------------------------------------------------------------------
      1         78           0        0.180630   -0.711229   -0.148614
      2         15           0       -2.281949   -0.428754   -0.030003
      3         15           0        0.929207    1.460703    0.010660
      4          6           0       -2.867914   -1.020941    1.619513
      5          6           0       -4.210508   -0.846840    2.008525
      6          6           0       -1.975589   -1.631094    2.516895
      7          6           0       -4.650300   -1.287646    3.258992
      8          1           0       -4.919067   -0.354034    1.339645
      9          6           0       -2.418674   -2.067436    3.769963
     10          1           0       -0.930238   -1.764535    2.238752
     11          6           0       -3.755015   -1.899930    4.142886
     12          1           0       -5.696585   -1.144672    3.545400
     13          1           0       -1.711464   -2.535955    4.457428
     14          1           0       -4.099203   -2.239480    5.123209
     15          6           0       -3.078338   -1.502786   -1.305250
     16          6           0       -2.572348   -1.460556   -2.616573
     17          6           0       -4.166630   -2.342749   -1.024298
     18          6           0       -3.160082   -2.218831   -3.631588
     19          1           0       -1.699727   -0.845358   -2.847694
     20          6           0       -4.750072   -3.108661   -2.039212
     21          1           0       -4.561271   -2.417950   -0.012057
     22          6           0       -4.253467   -3.044971   -3.344702
     23          1           0       -2.753298   -2.173304   -4.646223
     24          1           0       -5.595502   -3.761702   -1.802819
     25          1           0       -4.710400   -3.644733   -4.135598
     26          6           0       -3.190609    1.174938   -0.202823
     27          6           0       -3.187796    2.081236    0.874137
     28          6           0       -3.879783    1.519675   -1.377230
     29          6           0       -3.862833    3.300254    0.777789
     30          1           0       -2.668805    1.829820    1.801947
     31          6           0       -4.551693    2.742846   -1.471607
     32          1           0       -3.905860    0.832973   -2.223986
     33          6           0       -4.545615    3.636410   -0.396438
     34          1           0       -3.859395    3.987898    1.627177
     35          1           0       -5.086246    2.993296   -2.392106
     36          1           0       -5.075964    4.589086   -0.470186
     37          6           0        2.698578    1.784224   -0.414917
     38          6           0        3.522286    2.610772    0.363838
     39          6           0        3.187907    1.267972   -1.626104
     40          6           0        4.821766    2.906881   -0.060867
     41          1           0        3.161932    3.023631    1.307464
     42          6           0        4.486750    1.563418   -2.044795
     43          1           0        2.562698    0.617088   -2.241835
     44          6           0        5.307013    2.384555   -1.263199
     45          1           0        5.457539    3.546785    0.556565
     46          1           0        4.860106    1.141246   -2.981017
     47          1           0        6.324754    2.613274   -1.589796
     48          6           0        0.715182    2.083773    1.728935
     49          6           0       -0.158538    3.127921    2.070674
     50          6           0        1.431404    1.427099    2.749941
     51          6           0       -0.310862    3.511820    3.408245
     52          1           0       -0.731076    3.646821    1.302040
     53          6           0        1.278339    1.817727    4.081440
     54          1           0        2.126167    0.619528    2.505477
     55          6           0        0.405107    2.859788    4.415132
     56          1           0       -0.994277    4.326971    3.658905
     57          1           0        1.844954    1.303822    4.862160
     58          1           0        0.285057    3.162349    5.458311
     59          6           0        0.153048    2.659993   -1.160322
     60          6           0        0.401402    4.040804   -1.037496
     61          6           0       -0.535654    2.192401   -2.288672
     62          6           0       -0.066166    4.930962   -2.005804
     63          1           0        0.978108    4.428577   -0.195313
     64          6           0       -0.989009    3.084510   -3.266177
     65          1           0       -0.702666    1.122233   -2.416837
     66          6           0       -0.762879    4.454974   -3.123154
     67          1           0        0.127272    6.000584   -1.893620
     68          1           0       -1.519716    2.701843   -4.141460
     69          1           0       -1.119347    5.152827   -3.884759
     70         50           0        2.498103   -1.974608    0.099701
     71         17           0       -0.340872   -3.099634   -0.334271
     72         17           0        4.261272   -0.834752    1.403113
     73          6           0        2.772105   -3.932565    1.002224
     74          1           0        3.843061   -4.065427    1.204128
     75          1           0        2.201480   -3.967292    1.940985
     76          1           0        2.404397   -4.703013    0.312829
     77         17           0        3.595856   -2.306547   -2.068697
 ---------------------------------------------------------------------

 SCF Done:  E(RPBE-PBE) =  -26582.1689900     A.U. after    8 cycles

      1  Pt   Isotropic =  2894.8146   Anisotropy =  1738.6757

      2  P    Isotropic =   257.0293   Anisotropy =    62.8452

      3  P    Isotropic =   229.2733   Anisotropy =   181.6503

      4  C    Isotropic =    37.1736   Anisotropy =   210.5455

      5  C    Isotropic =    22.9416   Anisotropy =   155.8417

      6  C    Isotropic =    20.8046   Anisotropy =   145.3524

      7  C    Isotropic =    36.0833   Anisotropy =   184.5719

      8  H    Isotropic =    24.7961   Anisotropy =    11.5415

      9  C    Isotropic =    51.5043   Anisotropy =   198.7605

     10  H    Isotropic =    23.5579   Anisotropy =    15.2581

     11  C    Isotropic =    51.6086   Anisotropy =   261.7227

     12  H    Isotropic =    20.4539   Anisotropy =    10.2270

     13  H    Isotropic =    23.1302   Anisotropy =     9.0589

     14  H    Isotropic =    20.8909   Anisotropy =     8.4190

     15  C    Isotropic =    41.0672   Anisotropy =   259.4380

     16  C    Isotropic =    22.4504   Anisotropy =   153.9902

     17  C    Isotropic =    35.6540   Anisotropy =   186.0163

     18  C    Isotropic =    43.5786   Anisotropy =   194.8815

     19  H    Isotropic =    23.9437   Anisotropy =    12.1720

     20  C    Isotropic =    36.9342   Anisotropy =   194.4975

     21  H    Isotropic =    24.8519   Anisotropy =    14.2489

     22  C    Isotropic =    51.9085   Anisotropy =   285.5963

     23  H    Isotropic =    21.8899   Anisotropy =     9.6856

     24  H    Isotropic =    20.6754   Anisotropy =    10.7379

     25  H    Isotropic =    20.2847   Anisotropy =     9.3706

     26  C    Isotropic =    16.0599   Anisotropy =   223.8597

     27  C    Isotropic =    13.0561   Anisotropy =   123.7425

     28  C    Isotropic =    18.2074   Anisotropy =   150.2776

     29  C    Isotropic =    50.3568   Anisotropy =   199.7613

     30  H    Isotropic =    26.0644   Anisotropy =     9.4082

     31  C    Isotropic =    70.9277   Anisotropy =   227.9641

     32  H    Isotropic =    25.2641   Anisotropy =    12.8399

     33  C    Isotropic =    50.6249   Anisotropy =   185.7702

     34  H    Isotropic =    24.1293   Anisotropy =     6.7452

     35  H    Isotropic =    25.2395   Anisotropy =     4.7022

     36  H    Isotropic =    24.9682   Anisotropy =     2.8040

     37  C    Isotropic =     8.5977   Anisotropy =   270.5186

     38  C    Isotropic =    -6.5814   Anisotropy =   118.4073

     39  C    Isotropic =    30.3553   Anisotropy =   179.4497

     40  C    Isotropic =    41.9053   Anisotropy =   203.9744

     41  H    Isotropic =    25.1084   Anisotropy =    10.7528

     42  C    Isotropic =    73.7126   Anisotropy =   238.3475

     43  H    Isotropic =    23.0456   Anisotropy =    11.2412

     44  C    Isotropic =    48.1616   Anisotropy =   204.2003

     45  H    Isotropic =    23.5757   Anisotropy =     6.4143

     46  H    Isotropic =    25.8011   Anisotropy =     5.1145

     47  H    Isotropic =    25.4410   Anisotropy =     2.2000

     48  C    Isotropic =    11.1651   Anisotropy =   258.1661

     49  C    Isotropic =    -9.6194   Anisotropy =   139.3361

     50  C    Isotropic =    37.3191   Anisotropy =   215.9960

     51  C    Isotropic =    38.8041   Anisotropy =   168.9393

     52  H    Isotropic =    23.5622   Anisotropy =    11.8102

     53  C    Isotropic =    92.9096   Anisotropy =   246.4618

     54  H    Isotropic =    22.7303   Anisotropy =    11.7490

     55  C    Isotropic =    30.6660   Anisotropy =    89.2953

     56  H    Isotropic =    25.5729   Anisotropy =     5.1799

     57  H    Isotropic =    28.8384   Anisotropy =     9.9718

     58  H    Isotropic =    29.6955   Anisotropy =    12.7120

     59  C    Isotropic =   -13.5546   Anisotropy =   220.9113

     60  C    Isotropic =   -26.1952   Anisotropy =    87.3821

     61  C    Isotropic =    18.6164   Anisotropy =   180.0120

     62  C    Isotropic =    78.9165   Anisotropy =   237.7615

     63  H    Isotropic =    25.2629   Anisotropy =    14.1740

     64  C    Isotropic =   103.2421   Anisotropy =   263.6852

     65  H    Isotropic =    24.1936   Anisotropy =    14.9937

     66  C    Isotropic =    54.6879   Anisotropy =    90.9363

     67  H    Isotropic =    30.3170   Anisotropy =    11.0242

     68  H    Isotropic =    29.6726   Anisotropy =    10.3262

     69  H    Isotropic =    33.3201   Anisotropy =    21.1841

     70  Sn   Isotropic =  1960.6964   Anisotropy =   718.3369

     71  Cl   Isotropic =   966.4019   Anisotropy =   592.5281

     72  Cl   Isotropic =   828.2875   Anisotropy =   218.8796

     73  C    Isotropic =   166.1361   Anisotropy =    35.6741

     74  H    Isotropic =    30.7699   Anisotropy =    13.2076

     75  H    Isotropic =    30.6118   Anisotropy =    11.6688

     76  H    Isotropic =    30.2024   Anisotropy =    12.5571

     77  Cl   Isotropic =   852.7704   Anisotropy =   227.4091

 The electronic state is 1-A.
 Alpha  occ. eigenvalues -- ********************-427.53943-414.86982-414.86954
 Alpha  occ. eigenvalues -- -414.86689-149.64015-141.91846-141.91829-141.91713
 Alpha  occ. eigenvalues -- -100.54998-100.54641-100.53583 -99.92000 -92.07803
 Alpha  occ. eigenvalues --  -92.07796 -92.07381 -79.03723 -79.03614 -79.03391
 Alpha  occ. eigenvalues --  -79.03381 -79.03309 -76.31989 -76.30412 -28.80423
 Alpha  occ. eigenvalues --  -25.15137 -25.15083 -25.14709 -20.83481 -17.70027
 Alpha  occ. eigenvalues --  -17.70020 -17.69778 -17.69740 -17.69663 -17.40224
 Alpha  occ. eigenvalues --  -17.40207 -17.39333 -11.58685 -11.58292 -11.57837
 Alpha  occ. eigenvalues --  -11.57806 -11.57660  -9.92537  -9.92441  -9.92320
 Alpha  occ. eigenvalues --   -9.92094  -9.91953  -9.91618  -9.91457  -9.91366
 Alpha  occ. eigenvalues --   -9.91352  -9.91280  -9.91239  -9.91205  -9.91177
 Alpha  occ. eigenvalues --   -9.91169  -9.91091  -9.90955  -9.90949  -9.90905
 Alpha  occ. eigenvalues --   -9.90867  -9.90865  -9.90807  -9.90698  -9.90668
 Alpha  occ. eigenvalues --   -9.90657  -9.90638  -9.90633  -9.90620  -9.90585
 Alpha  occ. eigenvalues --   -9.90547  -9.90519  -9.90451  -9.90395  -9.90379
 Alpha  occ. eigenvalues --   -9.90347  -9.90344  -9.90122  -9.87361  -9.12881
 Alpha  occ. eigenvalues --   -9.12496  -9.11502  -6.96647  -6.96241  -6.96086
 Alpha  occ. eigenvalues --   -6.96061  -6.95737  -6.95671  -6.95253  -6.94712
 Alpha  occ. eigenvalues --   -6.94678  -6.35021  -6.33606  -4.57557  -4.57527
 Alpha  occ. eigenvalues --   -4.57290  -4.56147  -4.56131  -4.55801  -4.49221
 Alpha  occ. eigenvalues --   -3.22815  -3.22734  -3.22041  -3.13553  -3.13542
 Alpha  occ. eigenvalues --   -3.13079  -3.12806  -3.12638  -3.12619  -3.12549
 Alpha  occ. eigenvalues --   -2.86604  -1.81762  -1.81359  -1.78983  -1.01978
 Alpha  occ. eigenvalues --   -1.01771  -1.01309  -1.01207  -1.01185  -0.80134
 Alpha  occ. eigenvalues --   -0.79847  -0.79415  -0.79028  -0.78922  -0.78837
 Alpha  occ. eigenvalues --   -0.72094  -0.71712  -0.70919  -0.69903  -0.69327
 Alpha  occ. eigenvalues --   -0.69279  -0.69228  -0.69004  -0.68923  -0.68831
 Alpha  occ. eigenvalues --   -0.68716  -0.68480  -0.68379  -0.68361  -0.68317
 Alpha  occ. eigenvalues --   -0.61161  -0.61150  -0.60679  -0.56403  -0.56165
 Alpha  occ. eigenvalues --   -0.56164  -0.55748  -0.55523  -0.55405  -0.55083
 Alpha  occ. eigenvalues --   -0.54895  -0.54779  -0.54731  -0.52138  -0.51799
 Alpha  occ. eigenvalues --   -0.48017  -0.47773  -0.47680  -0.47568  -0.46059
 Alpha  occ. eigenvalues --   -0.45734  -0.42509  -0.42254  -0.42195  -0.41945
 Alpha  occ. eigenvalues --   -0.41697  -0.41567  -0.41271  -0.41119  -0.40990
 Alpha  occ. eigenvalues --   -0.40904  -0.40843  -0.40484  -0.40331  -0.38984
 Alpha  occ. eigenvalues --   -0.38835  -0.38593  -0.38536  -0.38357  -0.38318
 Alpha  occ. eigenvalues --   -0.38102  -0.37991  -0.37398  -0.37176  -0.36622
 Alpha  occ. eigenvalues --   -0.35778  -0.35608  -0.35502  -0.34976  -0.34489
 Alpha  occ. eigenvalues --   -0.34286  -0.34088  -0.33838  -0.33553  -0.32897
 Alpha  occ. eigenvalues --   -0.32306  -0.31932  -0.31707  -0.31642  -0.31322
 Alpha  occ. eigenvalues --   -0.31183  -0.31095  -0.30958  -0.30904  -0.30530
 Alpha  occ. eigenvalues --   -0.30206  -0.29898  -0.29868  -0.28473  -0.28046
 Alpha  occ. eigenvalues --   -0.27804  -0.26993  -0.26629  -0.26246  -0.25929
 Alpha  occ. eigenvalues --   -0.25720  -0.25490  -0.25037  -0.24959  -0.24740
 Alpha  occ. eigenvalues --   -0.24622  -0.24586  -0.24369  -0.24235  -0.23889
 Alpha  occ. eigenvalues --   -0.23692  -0.23633  -0.23244  -0.23058  -0.22767
 Alpha  occ. eigenvalues --   -0.21552  -0.20280
 Alpha virt. eigenvalues --   -0.11102  -0.07953  -0.07447  -0.06990  -0.06754
 Alpha virt. eigenvalues --   -0.06426  -0.06257  -0.05951  -0.05695  -0.05624
 Alpha virt. eigenvalues --   -0.05188  -0.04913  -0.04661  -0.04050  -0.02358

 Mulliken charges:
               1
     1  Pt   0.423262
     2  P    1.055982
     3  P    1.219113
     4  C   -1.038964
     5  C    0.495075
     6  C    0.347265
     7  C    0.054272
     8  H    0.096349
     9  C   -0.296570
    10  H    0.092394
    11  C   -0.624500
    12  H    0.142524
    13  H    0.140855
    14  H    0.154757
    15  C   -0.654581
    16  C    0.569616
    17  C    0.126759
    18  C    0.014955
    19  H    0.060489
    20  C   -0.229463
    21  H    0.096711
    22  C   -0.582199
    23  H    0.144277
    24  H    0.145044
    25  H    0.153153
    26  C   -0.936558
    27  C    0.606047
    28  C    0.198376
    29  C   -0.058919
    30  H    0.069569
    31  C   -0.206138
    32  H    0.077891
    33  C   -0.516496
    34  H    0.131444
    35  H    0.131969
    36  H    0.148537
    37  C   -1.177899
    38  C    0.450873
    39  C    0.414099
    40  C   -0.118223
    41  H    0.085573
    42  C   -0.058610
    43  H    0.101033
    44  C   -0.572196
    45  H    0.143627
    46  H    0.141726
    47  H    0.151020
    48  C   -0.727165
    49  C    0.343488
    50  C    0.411574
    51  C   -0.218750
    52  H    0.075762
    53  C   -0.163955
    54  H    0.066064
    55  C   -0.594024
    56  H    0.137868
    57  H    0.146614
    58  H    0.155512
    59  C   -0.790348
    60  C    0.244337
    61  C    0.475021
    62  C   -0.010982
    63  H    0.099130
    64  C   -0.231315
    65  H    0.057572
    66  C   -0.584627
    67  H    0.145414
    68  H    0.124400
    69  H    0.151625
    70  Sn   0.360056
    71  Cl  -0.423627
    72  Cl  -0.283297
    73  C   -0.356615
    74  H    0.124818
    75  H    0.107095
    76  H    0.122902
    77  Cl  -0.277865
 Sum of Mulliken charges =   0.00000

 Dipole moment (field-independent basis, Debye):
    X=            -12.0701    Y=             11.1220    Z=              2.4210  Tot=             16.5906
 Quadrupole moment (field-independent basis, Debye-Ang):
   XX=           -336.7327   YY=           -323.6202   ZZ=           -304.4221
   XY=             16.6101   XZ=              4.3779   YZ=             -5.4847

 1\1\GINC-NEQC27\SP\RPBEPBE\Gen\C37H33Cl3P2Pt1Sn1\GUEST\12-Dec-2019\0\\
 #PBEPBE/gen scf=(maxcycle=500,conver=3) NMR=GIAO Scrf=(solvent=Dichlor
 omethane)\\estrutura 95\\0,1\Pt,0,0.18063,-0.711229,-0.148614\P,0,-2.2
 81949,-0.428754,-0.030003\P,0,0.929207,1.460703,0.01066\C,0,-2.867914,
 -1.020941,1.619513\C,0,-4.210508,-0.84684,2.008525\C,0,-1.975589,-1.63
 1094,2.516895\C,0,-4.6503,-1.287646,3.258992\H,0,-4.919067,-0.354034,1
 .339645\C,0,-2.418674,-2.067436,3.769963\H,0,-0.930238,-1.764535,2.238
 752\C,0,-3.755015,-1.89993,4.142886\H,0,-5.696585,-1.144673,3.5454\H,0

 Normal termination of Gaussian 09 at Thu Dec 12 18:37:09 2019.
