 Gaussian 09, Revision D.01,
 Gaussian 09:  EM64L-G09RevD.01 24-Apr-2013

 ----------------------------------------------------------------------
 #PBEPBE/gen scf=(maxcycle=500,conver=4) NMR=GIAO Scrf=(solvent=Dichlor
 omethane)
 ----------------------------------------------------------------------

 ------------
 estrutura 73
 ------------
 Symbolic Z-matrix:
 Charge =  0 Multiplicity = 1

                         Standard orientation:
 ---------------------------------------------------------------------
 Center     Atomic      Atomic             Coordinates (Angstroms)
 Number     Number       Type             X           Y           Z
 ---------------------------------------------------------------------
      1         78           0       -0.112693   -0.041680   -0.061174
      2         15           0       -0.258197    2.368015   -0.016753
      3         15           0        0.080180   -2.431168   -0.196985
      4          6           0       -0.682556    2.970223   -1.717290
      5          1           0       -1.551688    2.370785   -2.030406
      6          1           0        0.157750    2.653162   -2.357196
      7          6           0       -0.978653    4.462336   -1.892440
      8          1           0       -0.153096    5.101064   -1.542882
      9          1           0       -1.139739    4.686190   -2.959357
     10          1           0       -1.891937    4.760467   -1.355967
     11          6           0       -1.620704    2.961708    1.113485
     12          1           0       -1.685014    2.226170    1.929154
     13          6           0        1.234739    3.342668    0.511562
     14          1           0        0.861685    4.323762    0.840170
     15          1           0        1.627426    2.841201    1.410229
     16          6           0        2.344426    3.543558   -0.524118
     17          1           0        3.163466    4.125874   -0.071078
     18          1           0        2.765284    2.593653   -0.876974
     19          1           0        1.989586    4.108204   -1.400205
     20          6           0       -0.749301   -3.325181    1.197321
     21          1           0       -0.601093   -4.405425    1.035663
     22          1           0       -1.831116   -3.143798    1.087483
     23          6           0       -0.255486   -2.900727    2.583410
     24          1           0        0.820663   -3.095174    2.713439
     25          1           0       -0.427339   -1.826313    2.754449
     26          1           0       -0.791708   -3.457976    3.367998
     27          6           0        1.813919   -3.095946   -0.227080
     28          1           0        2.260701   -2.713423   -1.157763
     29          1           0        2.363783   -2.600651    0.587142
     30          6           0        1.967411   -4.616765   -0.138266
     31          1           0        3.028508   -4.887287   -0.259022
     32          1           0        1.638385   -5.011629    0.836403
     33          1           0        1.405729   -5.144556   -0.923790
     34          6           0       -0.698230   -3.133666   -1.726921
     35          1           0       -0.407781   -4.195385   -1.781437
     36          1           0       -1.787828   -3.115403   -1.565873
     37          6           0       -0.325443   -2.399314   -3.017714
     38          1           0       -0.824507   -2.870164   -3.879707
     39          1           0       -0.639444   -1.343826   -2.979906
     40          1           0        0.759756   -2.420226   -3.211366
     41         50           0       -2.836443   -0.232736    0.078607
     42         17           0       -3.772300    0.154393    2.310601
     43         17           0       -4.224979    1.323301   -1.223546
     44         17           0       -4.123768   -2.264770   -0.408204
     45          6           0       -1.552119    4.374669    1.700504
     46          1           0       -2.472528    4.567386    2.275003
     47          1           0       -0.705861    4.494455    2.393690
     48          1           0       -1.476130    5.155523    0.929273
     49          1           0       -2.544015    2.842003    0.523441
     50          6           0        1.932346    0.079180    0.004836
     51          6           0        2.721973    0.023662   -1.159396
     52          6           0        2.594171    0.181785    1.241835
     53          6           0        4.117167    0.063047   -1.092806
     54          1           0        2.247280   -0.054218   -2.141008
     55          6           0        3.989960    0.222363    1.317575
     56          1           0        2.019505    0.227736    2.170954
     57          6           0        4.758362    0.161488    0.149290
     58          1           0        4.706500    0.023706   -2.012029
     59          1           0        4.480454    0.304894    2.289593
     60          6           0        6.259615    0.148916    0.222708
     61          9           0        6.760483   -1.105818    0.151697
     62          9           0        6.720867    0.680379    1.370691
     63          9           0        6.823657    0.837737   -0.790192
 ---------------------------------------------------------------------

 SCF Done:  E(RPBE-PBE) =  -26196.9382853     A.U. after   12 cycles

      1  Pt   Isotropic =  2980.5749   Anisotropy =  1113.5489

      2  P    Isotropic =   292.1017   Anisotropy =    35.0967

      3  P    Isotropic =   271.8149   Anisotropy =    57.1065

      4  C    Isotropic =   157.0259   Anisotropy =    34.1878

      5  H    Isotropic =    28.8070   Anisotropy =     7.7475

      6  H    Isotropic =    29.3146   Anisotropy =     5.7019

      7  C    Isotropic =   172.7816   Anisotropy =    20.5656

      8  H    Isotropic =    30.4419   Anisotropy =     8.6870

      9  H    Isotropic =    30.1280   Anisotropy =    13.2836

     10  H    Isotropic =    30.1624   Anisotropy =     7.8646

     11  C    Isotropic =   149.7004   Anisotropy =    29.3619

     12  H    Isotropic =    28.7029   Anisotropy =     8.7586

     13  C    Isotropic =   164.6527   Anisotropy =    22.7762

     14  H    Isotropic =    29.1774   Anisotropy =     9.3763

     15  H    Isotropic =    29.9652   Anisotropy =     5.9288

     16  C    Isotropic =   173.8642   Anisotropy =    20.7807

     17  H    Isotropic =    30.8055   Anisotropy =    12.1112

     18  H    Isotropic =    31.7647   Anisotropy =    13.6598

     19  H    Isotropic =    30.9719   Anisotropy =     8.9492

     20  C    Isotropic =   156.3856   Anisotropy =    20.4233

     21  H    Isotropic =    29.3821   Anisotropy =     9.4002

     22  H    Isotropic =    29.1612   Anisotropy =     9.4724

     23  C    Isotropic =   171.8801   Anisotropy =    18.9585

     24  H    Isotropic =    30.7094   Anisotropy =     8.8977

     25  H    Isotropic =    30.3358   Anisotropy =     5.2860

     26  H    Isotropic =    30.1141   Anisotropy =    13.3076

     27  C    Isotropic =   164.2076   Anisotropy =    26.0086

     28  H    Isotropic =    30.1947   Anisotropy =     7.1785

     29  H    Isotropic =    30.7522   Anisotropy =    10.4018

     30  C    Isotropic =   176.9564   Anisotropy =    18.3075

     31  H    Isotropic =    30.5391   Anisotropy =    12.7204

     32  H    Isotropic =    30.7586   Anisotropy =     9.8908

     33  H    Isotropic =    30.6755   Anisotropy =     9.9112

     34  C    Isotropic =   158.7987   Anisotropy =    23.4180

     35  H    Isotropic =    29.4000   Anisotropy =    10.0025

     36  H    Isotropic =    28.8627   Anisotropy =    10.2226

     37  C    Isotropic =   170.5599   Anisotropy =    20.3981

     38  H    Isotropic =    30.0557   Anisotropy =    13.5142

     39  H    Isotropic =    30.3436   Anisotropy =     6.3283

     40  H    Isotropic =    30.4537   Anisotropy =     9.1116

     41  Sn   Isotropic =  2140.8948   Anisotropy =   824.2877

     42  Cl   Isotropic =   755.1132   Anisotropy =   314.9245

     43  Cl   Isotropic =   749.4973   Anisotropy =   311.9319

     44  Cl   Isotropic =   752.1393   Anisotropy =   295.0957

     45  C    Isotropic =   170.6457   Anisotropy =    20.7954

     46  H    Isotropic =    29.9928   Anisotropy =    12.1697

     47  H    Isotropic =    30.2363   Anisotropy =     9.2314

     48  H    Isotropic =    30.3768   Anisotropy =     8.5910

     49  H    Isotropic =    28.4741   Anisotropy =     9.1033

     50  C    Isotropic =    -5.9002   Anisotropy =   210.4796

     51  C    Isotropic =    39.6908   Anisotropy =   164.9547

     52  C    Isotropic =    45.3219   Anisotropy =   162.4859

     53  C    Isotropic =    57.7409   Anisotropy =   170.5424

     54  H    Isotropic =    23.6192   Anisotropy =    13.3269

     55  C    Isotropic =    56.7875   Anisotropy =   178.5338

     56  H    Isotropic =    23.6367   Anisotropy =    13.9483

     57  C    Isotropic =    50.2522   Anisotropy =   137.0022

     58  H    Isotropic =    24.0857   Anisotropy =     7.7832

     59  H    Isotropic =    23.7829   Anisotropy =     8.3884

     60  C    Isotropic =    46.1649   Anisotropy =     4.4433

     61  F    Isotropic =   205.6604   Anisotropy =   149.7956

     62  F    Isotropic =   234.6435   Anisotropy =   131.7337

     63  F    Isotropic =   230.4041   Anisotropy =   144.5474

 The electronic state is 1-A.
 Alpha  occ. eigenvalues -- ********************-427.53951-414.86999-414.86959
 Alpha  occ. eigenvalues -- -414.86679-149.65241-141.93054-141.93050-141.92979
 Alpha  occ. eigenvalues -- -100.55599-100.55512-100.55410 -99.91991 -92.07853
 Alpha  occ. eigenvalues --  -92.07729 -92.07369 -79.03732 -79.03612 -79.03410
 Alpha  occ. eigenvalues --  -79.03348 -79.03302 -76.29979 -76.29875 -28.81616
 Alpha  occ. eigenvalues --  -25.16250 -25.16243 -25.16015 -24.29233 -24.29085
 Alpha  occ. eigenvalues --  -24.28785 -20.83460 -17.71145 -17.71144 -17.70991
 Alpha  occ. eigenvalues --  -17.70988 -17.70942 -17.40310 -17.40079 -17.39309
 Alpha  occ. eigenvalues --  -11.58689 -11.58266 -11.57847 -11.57731 -11.57639
 Alpha  occ. eigenvalues --  -10.13325  -9.91989  -9.91144  -9.91050  -9.91024
 Alpha  occ. eigenvalues --   -9.90883  -9.90825  -9.90810  -9.90701  -9.90692
 Alpha  occ. eigenvalues --   -9.90633  -9.90193  -9.90166  -9.89084  -9.89080
 Alpha  occ. eigenvalues --   -9.89080  -9.89071  -9.89038  -9.88692  -9.13464
 Alpha  occ. eigenvalues --   -9.13373  -9.13273  -6.97225  -6.97127  -6.97034
 Alpha  occ. eigenvalues --   -6.96668  -6.96657  -6.96584  -6.96566  -6.96479
 Alpha  occ. eigenvalues --   -6.96463  -6.32984  -6.32910  -4.55516  -4.55510
 Alpha  occ. eigenvalues --   -4.55436  -4.55424  -4.55241  -4.55180  -4.50310
 Alpha  occ. eigenvalues --   -3.23758  -3.23731  -3.23330  -3.13554  -3.13518
 Alpha  occ. eigenvalues --   -3.13061  -3.12760  -3.12636  -3.12548  -3.12509
 Alpha  occ. eigenvalues --   -2.86412  -1.81447  -1.81251  -1.78710  -1.21386
 Alpha  occ. eigenvalues --   -1.12793  -1.12351  -1.02792  -1.02783  -1.02417
 Alpha  occ. eigenvalues --   -1.02376  -1.02280  -0.79515  -0.73615  -0.73485
 Alpha  occ. eigenvalues --   -0.72132  -0.71156  -0.70611  -0.70519  -0.69667
 Alpha  occ. eigenvalues --   -0.69430  -0.69198  -0.69167  -0.68729  -0.63529
 Alpha  occ. eigenvalues --   -0.61391  -0.61100  -0.57315  -0.56940  -0.56587
 Alpha  occ. eigenvalues --   -0.56372  -0.56270  -0.55689  -0.53650  -0.53007
 Alpha  occ. eigenvalues --   -0.51054  -0.49203  -0.48384  -0.43466  -0.42956
 Alpha  occ. eigenvalues --   -0.42626  -0.42501  -0.42201  -0.41914  -0.41495
 Alpha  occ. eigenvalues --   -0.41158  -0.40917  -0.40710  -0.40448  -0.40228
 Alpha  occ. eigenvalues --   -0.38761  -0.38457  -0.38420  -0.38001  -0.37752
 Alpha  occ. eigenvalues --   -0.37553  -0.37343  -0.36757  -0.36604  -0.36449
 Alpha  occ. eigenvalues --   -0.35328  -0.35121  -0.35024  -0.34905  -0.34570
 Alpha  occ. eigenvalues --   -0.33978  -0.33549  -0.33314  -0.33235  -0.32689
 Alpha  occ. eigenvalues --   -0.32430  -0.32258  -0.32053  -0.31932  -0.31768
 Alpha  occ. eigenvalues --   -0.31378  -0.31130  -0.31074  -0.30587  -0.30349
 Alpha  occ. eigenvalues --   -0.29121  -0.28825  -0.28461  -0.28293  -0.27552
 Alpha  occ. eigenvalues --   -0.27545  -0.27290  -0.26308  -0.25948  -0.25856
 Alpha  occ. eigenvalues --   -0.25667  -0.25475  -0.24104  -0.23928  -0.22518
 Alpha  occ. eigenvalues --   -0.21803  -0.20294
 Alpha virt. eigenvalues --   -0.08275  -0.06513  -0.06056  -0.05580  -0.04551
 Alpha virt. eigenvalues --   -0.03086  -0.02292  -0.01751  -0.01611  -0.00646
 Alpha virt. eigenvalues --   -0.00434  -0.00165   0.00028   0.00671   0.01312

 Mulliken charges:
               1
     1  Pt   0.359284
     2  P    0.042899
     3  P    0.191250
     4  C   -0.354757
     5  H    0.088159
     6  H    0.093811
     7  C   -0.178832
     8  H    0.109082
     9  H    0.137468
    10  H    0.113713
    11  C   -0.318966
    12  H    0.097094
    13  C   -0.326582
    14  H    0.110196
    15  H    0.089948
    16  C   -0.095489
    17  H    0.119461
    18  H    0.056161
    19  H    0.094288
    20  C   -0.379273
    21  H    0.111288
    22  H    0.078544
    23  C   -0.101751
    24  H    0.103014
    25  H    0.073524
    26  H    0.133919
    27  C   -0.406931
    28  H    0.083392
    29  H    0.076150
    30  C   -0.176510
    31  H    0.136589
    32  H    0.114534
    33  H    0.112347
    34  C   -0.418429
    35  H    0.105229
    36  H    0.092935
    37  C   -0.104111
    38  H    0.134463
    39  H    0.073277
    40  H    0.096726
    41  Sn   0.308409
    42  Cl  -0.285820
    43  Cl  -0.279655
    44  Cl  -0.220657
    45  C   -0.172599
    46  H    0.132039
    47  H    0.116423
    48  H    0.112468
    49  H    0.078699
    50  C    0.181780
    51  C    0.049778
    52  C   -0.031443
    53  C   -0.203988
    54  H    0.044279
    55  C   -0.317467
    56  H    0.064620
    57  C   -0.050806
    58  H    0.102184
    59  H    0.113529
    60  C   -0.046959
    61  F   -0.027029
    62  F   -0.015445
    63  F   -0.019454
 Sum of Mulliken charges =   0.00000

 Dipole moment (field-independent basis, Debye):
    X=              8.9646    Y=              0.7687    Z=             -1.6206  Tot=              9.1423
 Quadrupole moment (field-independent basis, Debye-Ang):
   XX=           -343.1951   YY=           -224.8628   ZZ=           -251.9902
   XY=             -8.0062   XZ=              1.2783   YZ=              2.3187

 Normal termination of Gaussian 09 at Sun Aug 25 05:55:03 2019.
