 Gaussian 09, Revision D.01,
 Gaussian 09:  EM64L-G09RevD.01 24-Apr-2013

 ----------------------------------------------------------------------
 #PBEPBE/gen scf=(maxcycle=500,conver=4) NMR=GIAO Scrf=(solvent=Dichlor
 omethane)
 ----------------------------------------------------------------------

 ------------
 estrutura 68
 ------------
 Symbolic Z-matrix:
 Charge =  0 Multiplicity = 1

                         Standard orientation:
 ---------------------------------------------------------------------
 Center     Atomic      Atomic             Coordinates (Angstroms)
 Number     Number       Type             X           Y           Z
 ---------------------------------------------------------------------
      1         50           0        0.050832    1.108906    0.167220
      2         17           0       -0.034943    3.060791   -1.226209
      3         17           0       -0.138815    2.058730    2.364959
      4          6           0       -3.049683    1.530927   -0.292635
      5          8           0       -3.574794    2.538498   -0.395788
      6          6           0        3.215636    1.148531   -0.484776
      7          8           0        3.864074    2.048412   -0.741387
      8         78           0        2.220869   -0.364010   -0.079347
      9         78           0       -2.284121   -0.136067   -0.121521
     10         17           0       -1.428051   -2.482121    0.085124
     11         17           0       -3.723713   -2.579833   -0.291701
     12         17           0        4.236014   -1.710864   -0.178024
     13         17           0        1.035512   -2.417956    0.485181
 ---------------------------------------------------------------------

 SCF Done:  E(RPBE-PBE) =  -43189.4325155     A.U. after   12 cycles

      1  Sn   Isotropic =  1787.6638   Anisotropy =   670.1095

      2  Cl   Isotropic =   648.8925   Anisotropy =   349.5493

      3  Cl   Isotropic =   659.9867   Anisotropy =   349.1783

      4  C    Isotropic =    -1.6741   Anisotropy =   430.1389

      5  O    Isotropic =   -40.7540   Anisotropy =   614.4930

      6  C    Isotropic =    -0.3333   Anisotropy =   417.4967

      7  O    Isotropic =   -41.8616   Anisotropy =   575.9736

      8  Pt   Isotropic =  2400.1223   Anisotropy =  3595.7171

      9  Pt   Isotropic =  3063.1558   Anisotropy =  5380.7874

     10  Cl   Isotropic =   344.9902   Anisotropy =  1097.9560

     11  Cl   Isotropic =   349.1589   Anisotropy =  1018.8856

     12  Cl   Isotropic =   868.6236   Anisotropy =   644.9176

     13  Cl   Isotropic =   180.3316   Anisotropy =  1142.1552

 The electronic state is 1-A.
 Alpha  occ. eigenvalues -- ******************************-427.59928-427.58757
 Alpha  occ. eigenvalues -- -414.93031-414.92877-414.92588-414.91850-414.91700
 Alpha  occ. eigenvalues -- -414.91457-149.68043-141.95836-141.95833-141.95794
 Alpha  occ. eigenvalues -- -100.66354-100.60653-100.60576-100.57946-100.57902
 Alpha  occ. eigenvalues -- -100.54567 -99.97976 -99.96824 -92.13944 -92.13709
 Alpha  occ. eigenvalues --  -92.13240 -92.12738 -92.12556 -92.12144 -79.09798
 Alpha  occ. eigenvalues --  -79.09662 -79.09412 -79.09257 -79.09203 -79.08575
 Alpha  occ. eigenvalues --  -79.08486 -79.08253 -79.08133 -79.08077 -28.84480
 Alpha  occ. eigenvalues --  -25.19090 -25.19064 -25.18940 -20.89431 -20.88292
 Alpha  occ. eigenvalues --  -18.87849 -18.87152 -17.73961 -17.73958 -17.73876
 Alpha  occ. eigenvalues --  -17.73858 -17.73837 -17.46529 -17.46022 -17.45285
 Alpha  occ. eigenvalues --  -17.45049 -17.44869 -17.44028 -11.64855 -11.64379
 Alpha  occ. eigenvalues --  -11.63880 -11.63546 -11.63510 -11.63402 -11.63226
 Alpha  occ. eigenvalues --  -11.62755 -11.62453 -11.62339 -10.05430 -10.04751
 Alpha  occ. eigenvalues --   -9.23643  -9.18334  -9.18211  -9.15783  -9.15728
 Alpha  occ. eigenvalues --   -9.12401  -7.08091  -7.06776  -7.06418  -7.02351
 Alpha  occ. eigenvalues --   -7.02183  -7.01709  -7.01349  -7.01330  -7.01169
 Alpha  occ. eigenvalues --   -6.99596  -6.99543  -6.98966  -6.98949  -6.98913
 Alpha  occ. eigenvalues --   -6.98896  -6.96237  -6.95578  -6.95555  -4.53261
 Alpha  occ. eigenvalues --   -3.26650  -3.26628  -3.26428  -3.19746  -3.19679
 Alpha  occ. eigenvalues --   -3.19119  -3.18742  -3.18598  -3.18477  -3.18429
 Alpha  occ. eigenvalues --   -3.18264  -3.18242  -3.17926  -3.17663  -3.17509
 Alpha  occ. eigenvalues --   -3.17213  -3.17188  -2.92387  -2.91348  -1.88501
 Alpha  occ. eigenvalues --   -1.87556  -1.86717  -1.85486  -1.84078  -1.83309
 Alpha  occ. eigenvalues --   -1.09359  -1.08777  -1.05771  -1.05626  -1.05429
 Alpha  occ. eigenvalues --   -1.05383  -1.05361  -0.81700  -0.75346  -0.74036
 Alpha  occ. eigenvalues --   -0.72860  -0.71818  -0.69714  -0.56060  -0.55747
 Alpha  occ. eigenvalues --   -0.48371  -0.47887  -0.46282  -0.45862  -0.45640
 Alpha  occ. eigenvalues --   -0.45236  -0.44559  -0.43148  -0.37626  -0.36555
 Alpha  occ. eigenvalues --   -0.36070  -0.35855  -0.35055  -0.34369  -0.33660
 Alpha  occ. eigenvalues --   -0.33618  -0.32449  -0.31665  -0.30947  -0.30710
 Alpha  occ. eigenvalues --   -0.30141  -0.30002  -0.29553  -0.29048  -0.28520
 Alpha  occ. eigenvalues --   -0.28236  -0.28151  -0.27248  -0.26485  -0.26148
 Alpha  occ. eigenvalues --   -0.24909  -0.24613  -0.23905
 Alpha virt. eigenvalues --   -0.19272  -0.16375  -0.11163  -0.10635  -0.09746
 Alpha virt. eigenvalues --   -0.08896  -0.06628  -0.05342  -0.04824  -0.01932
 Alpha virt. eigenvalues --   -0.00441   0.00042   0.00587   0.01217   0.01973

 Mulliken charges:
               1
     1  Sn   0.099723
     2  Cl  -0.175253
     3  Cl  -0.194490
     4  C    0.014169
     5  O   -0.010518
     6  C    0.006525
     7  O   -0.015264
     8  Pt   0.609197
     9  Pt   0.741765
    10  Cl  -0.096132
    11  Cl  -0.270450
    12  Cl  -0.479035
    13  Cl  -0.230234
 Sum of Mulliken charges =   0.00000

 Dipole moment (field-independent basis, Debye):
    X=             -6.9027    Y=              1.0833    Z=             -1.2905  Tot=              7.1054
 Quadrupole moment (field-independent basis, Debye-Ang):
   XX=           -196.2001   YY=           -202.7422   ZZ=           -184.7821
   XY=             10.7048   XZ=              1.3727   YZ=             -1.2235

 Normal termination of Gaussian 09 at Tue Nov 19 10:44:36 2019.
