 Gaussian 09, Revision D.01,
 Gaussian 09:  EM64L-G09RevD.01 24-Apr-2013

 ----------------------------------------------------------------------
 #PBEPBE/gen scf=(maxcycle=500,conver=4) NMR=GIAO Scrf=(solvent=Dichlor
 omethane)
 ----------------------------------------------------------------------

 ------------
 estrutura 24
 ------------
 Symbolic Z-matrix:
 Charge = -2 Multiplicity = 1

                         Standard orientation:
 ---------------------------------------------------------------------
 Center     Atomic      Atomic             Coordinates (Angstroms)
 Number     Number       Type             X           Y           Z
 ---------------------------------------------------------------------
      1         78           0        0.021099    0.294365   -0.084227
      2         50           0       -0.554580    0.267687    2.581684
      3         50           0        0.172590   -2.377563    0.020202
      4         50           0       -2.224144   -0.070712   -1.558519
      5         50           0        2.633417    0.208039   -0.802723
      6         17           0       -1.934661   -1.455947    3.649053
      7         17           0       -1.789565    2.212557    3.494672
      8         17           0        1.313687    0.295262    4.181345
      9         17           0        1.296773   -3.369049    1.917267
     10         17           0        1.343634   -3.487619   -1.783970
     11         17           0       -1.812251   -3.748327    0.073135
     12         17           0       -2.293326   -1.790647   -3.299377
     13         17           0       -3.254790    1.722574   -2.905563
     14         17           0       -4.258471   -0.609369   -0.306196
     15         17           0        4.190855   -1.477409    0.011477
     16         17           0        3.195548    0.113191   -3.184473
     17         17           0        4.061457    2.138344   -0.244691
     18         15           0       -0.015113    2.690321   -0.220223
     19          6           0        0.956897    3.443779    1.169198
     20          1           0        0.448525    3.143294    2.097310
     21          1           0        1.932464    2.938511    1.144216
     22          6           0        1.146136    4.966422    1.157598
     23          1           0        0.213044    5.496886    1.405227
     24          1           0        1.898052    5.244855    1.914318
     25          1           0        1.503340    5.330532    0.181389
     26          6           0        0.770026    3.379838   -1.755266
     27          1           0        0.553447    4.461881   -1.752881
     28          1           0        1.857690    3.280402   -1.596709
     29          6           0        0.345679    2.763872   -3.091389
     30          1           0       -0.728021    2.893047   -3.285752
     31          1           0        0.899373    3.246882   -3.912016
     32          1           0        0.569013    1.687494   -3.129584
     33          6           0       -1.718475    3.428233   -0.098559
     34          1           0       -1.938825    3.448132    0.981820
     35          1           0       -2.422985    2.715286   -0.549767
     36          6           0       -1.926649    4.802683   -0.744002
     37          1           0       -2.947611    5.152891   -0.521609
     38          1           0       -1.231443    5.566243   -0.368315
     39          1           0       -1.832124    4.756374   -1.837842
 ---------------------------------------------------------------------

 SCF Done:  E(RPBE-PBE) =  -47129.9813871     A.U. after   10 cycles

      1  Pt   Isotropic =  3784.9649   Anisotropy =   309.0133

      2  Sn   Isotropic =  2151.4268   Anisotropy =   859.4567

      3  Sn   Isotropic =  2078.3448   Anisotropy =   808.5966

      4  Sn   Isotropic =  2145.5349   Anisotropy =   864.6626

      5  Sn   Isotropic =  2133.3975   Anisotropy =   878.6436

      6  Cl   Isotropic =   712.5932   Anisotropy =   374.9035

      7  Cl   Isotropic =   723.2709   Anisotropy =   345.2708

      8  Cl   Isotropic =   722.1907   Anisotropy =   387.7035

      9  Cl   Isotropic =   682.1184   Anisotropy =   382.0700

     10  Cl   Isotropic =   676.8675   Anisotropy =   389.6354

     11  Cl   Isotropic =   685.8031   Anisotropy =   370.1361

     12  Cl   Isotropic =   697.1312   Anisotropy =   386.9821

     13  Cl   Isotropic =   720.8697   Anisotropy =   343.1987

     14  Cl   Isotropic =   714.6441   Anisotropy =   377.1355

     15  Cl   Isotropic =   701.6440   Anisotropy =   363.0165

     16  Cl   Isotropic =   715.1658   Anisotropy =   385.5000

     17  Cl   Isotropic =   732.6274   Anisotropy =   312.3556

     18  P    Isotropic =   237.5368   Anisotropy =   109.1953

     19  C    Isotropic =   142.4330   Anisotropy =    38.9748

     20  H    Isotropic =    28.4152   Anisotropy =     9.5375

     21  H    Isotropic =    27.9488   Anisotropy =     6.5094

     22  C    Isotropic =   171.3810   Anisotropy =    23.7603

     23  H    Isotropic =    30.0893   Anisotropy =     9.8267

     24  H    Isotropic =    30.1226   Anisotropy =    13.3063

     25  H    Isotropic =    30.0331   Anisotropy =     8.8005

     26  C    Isotropic =   157.3123   Anisotropy =    15.7677

     27  H    Isotropic =    28.6685   Anisotropy =    10.3016

     28  H    Isotropic =    28.9836   Anisotropy =     8.1921

     29  C    Isotropic =   168.4779   Anisotropy =    12.6993

     30  H    Isotropic =    29.7210   Anisotropy =     8.5946

     31  H    Isotropic =    30.0781   Anisotropy =    13.5584

     32  H    Isotropic =    29.9853   Anisotropy =     6.4387

     33  C    Isotropic =   143.6775   Anisotropy =    43.8895

     34  H    Isotropic =    27.7835   Anisotropy =     5.8684

     35  H    Isotropic =    28.4038   Anisotropy =     9.5239

     36  C    Isotropic =   170.0099   Anisotropy =    25.0335

     37  H    Isotropic =    30.0421   Anisotropy =    13.7727

     38  H    Isotropic =    30.3449   Anisotropy =     9.6243

     39  H    Isotropic =    30.0973   Anisotropy =     7.6444

 The electronic state is 1-A.
 Alpha  occ. eigenvalues -- **************************************************
 Alpha  occ. eigenvalues -- -427.55187-414.88245-414.88069-414.88020-149.65145
 Alpha  occ. eigenvalues -- -149.64475-149.64138-149.63886-141.92952-141.92951
 Alpha  occ. eigenvalues -- -141.92888-141.92289-141.92281-141.92220-141.91953
 Alpha  occ. eigenvalues -- -141.91941-141.91884-141.91699-141.91692-141.91634
 Alpha  occ. eigenvalues -- -100.54538-100.54522-100.54445-100.54322-100.54115
 Alpha  occ. eigenvalues -- -100.54039-100.53962-100.53871-100.53782-100.53750
 Alpha  occ. eigenvalues -- -100.53642-100.53539 -99.93225 -92.09138 -92.08801
 Alpha  occ. eigenvalues --  -92.08713 -79.04924 -79.04795 -79.04745 -79.04559
 Alpha  occ. eigenvalues --  -79.04555 -76.30323 -28.81553 -28.80842 -28.80511
 Alpha  occ. eigenvalues --  -28.80249 -25.16175 -25.16172 -25.15971 -25.15474
 Alpha  occ. eigenvalues --  -25.15452 -25.15265 -25.15143 -25.15116 -25.14938
 Alpha  occ. eigenvalues --  -25.14874 -25.14857 -25.14680 -20.84693 -17.71064
 Alpha  occ. eigenvalues --  -17.71064 -17.70928 -17.70927 -17.70887 -17.70359
 Alpha  occ. eigenvalues --  -17.70358 -17.70231 -17.70217 -17.70183 -17.70024
 Alpha  occ. eigenvalues --  -17.70024 -17.69902 -17.69885 -17.69854 -17.69761
 Alpha  occ. eigenvalues --  -17.69760 -17.69640 -17.69629 -17.69596 -17.41637
 Alpha  occ. eigenvalues --  -17.40970 -17.40790 -11.59789 -11.59404 -11.59297
 Alpha  occ. eigenvalues --  -11.58931 -11.58921  -9.89986  -9.89603  -9.89591
 Alpha  occ. eigenvalues --   -9.88018  -9.87960  -9.87371  -9.12388  -9.12376
 Alpha  occ. eigenvalues --   -9.12298  -9.12182  -9.11974  -9.11898  -9.11826
 Alpha  occ. eigenvalues --   -9.11731  -9.11640  -9.11603  -9.11499  -9.11404
 Alpha  occ. eigenvalues --   -6.96200  -6.96199  -6.96115  -6.95949  -6.95745
 Alpha  occ. eigenvalues --   -6.95676  -6.95616  -6.95563  -6.95559  -6.95543
 Alpha  occ. eigenvalues --   -6.95543  -6.95484  -6.95476  -6.95460  -6.95414
 Alpha  occ. eigenvalues --   -6.95382  -6.95382  -6.95374  -6.95264  -6.95176
 Alpha  occ. eigenvalues --   -6.95174  -6.95162  -6.95095  -6.95080  -6.95015
 Alpha  occ. eigenvalues --   -6.95002  -6.94939  -6.94930  -6.94839  -6.94826
 Alpha  occ. eigenvalues --   -6.94805  -6.94780  -6.94705  -6.94688  -6.94601
 Alpha  occ. eigenvalues --   -6.94591  -6.33228  -4.55721  -4.55709  -4.55602
 Alpha  occ. eigenvalues --   -4.50284  -4.49510  -4.49189  -4.48912  -3.23704
 Alpha  occ. eigenvalues --   -3.23694  -3.23363  -3.22949  -3.22901  -3.22632
 Alpha  occ. eigenvalues --   -3.22574  -3.22567  -3.22338  -3.22299  -3.22260
 Alpha  occ. eigenvalues --   -3.21987  -3.14655  -3.14527  -3.14411  -3.14053
 Alpha  occ. eigenvalues --   -3.14041  -3.13769  -3.13768  -2.87660  -1.82720
 Alpha  occ. eigenvalues --   -1.81437  -1.80969  -1.02765  -1.02765  -1.02391
 Alpha  occ. eigenvalues --   -1.02364  -1.02314  -1.01944  -1.01936  -1.01618
 Alpha  occ. eigenvalues --   -1.01611  -1.01610  -1.01571  -1.01493  -1.01326
 Alpha  occ. eigenvalues --   -1.01315  -1.01296  -1.01250  -1.01181  -1.01004
 Alpha  occ. eigenvalues --   -1.00970  -1.00906  -0.72711  -0.71302  -0.70783
 Alpha  occ. eigenvalues --   -0.70513  -0.70252  -0.69553  -0.69477  -0.69219
 Alpha  occ. eigenvalues --   -0.69035  -0.68970  -0.68806  -0.68795  -0.68611
 Alpha  occ. eigenvalues --   -0.68308  -0.68167  -0.60458  -0.55909  -0.55244
 Alpha  occ. eigenvalues --   -0.47973  -0.42708  -0.41674  -0.41349  -0.40365
 Alpha  occ. eigenvalues --   -0.40269  -0.40152  -0.39591  -0.37581  -0.37120
 Alpha  occ. eigenvalues --   -0.36340  -0.34319  -0.33715  -0.33356  -0.32721
 Alpha  occ. eigenvalues --   -0.32426  -0.32298  -0.31962  -0.31440  -0.31148
 Alpha  occ. eigenvalues --   -0.31086  -0.30742  -0.30452  -0.30361  -0.30286
 Alpha  occ. eigenvalues --   -0.30091  -0.29793  -0.29762  -0.29441  -0.29145
 Alpha  occ. eigenvalues --   -0.28801  -0.27305  -0.27210  -0.27102  -0.26871
 Alpha  occ. eigenvalues --   -0.26768  -0.26555  -0.26388  -0.26208  -0.26061
 Alpha  occ. eigenvalues --   -0.25971  -0.25804  -0.25616  -0.25580  -0.25200
 Alpha  occ. eigenvalues --   -0.25087  -0.24997  -0.24759  -0.24564  -0.24530
 Alpha  occ. eigenvalues --   -0.24450  -0.24322  -0.24208  -0.24060  -0.24025
 Alpha  occ. eigenvalues --   -0.23938  -0.23839  -0.22209  -0.19690  -0.18337
 Alpha virt. eigenvalues --   -0.11429  -0.05617  -0.05602  -0.04680  -0.04577
 Alpha virt. eigenvalues --   -0.04343  -0.03045  -0.01825  -0.01405  -0.01053
 Alpha virt. eigenvalues --   -0.00574   0.00324   0.00408   0.00835   0.01497

 Mulliken charges:
               1
     1  Pt  -1.007576
     2  Sn   0.390384
     3  Sn   0.180381
     4  Sn   0.443283
     5  Sn   0.392132
     6  Cl  -0.210367
     7  Cl  -0.274244
     8  Cl  -0.244693
     9  Cl  -0.174037
    10  Cl  -0.176614
    11  Cl  -0.144102
    12  Cl  -0.210066
    13  Cl  -0.246493
    14  Cl  -0.224004
    15  Cl  -0.188599
    16  Cl  -0.224197
    17  Cl  -0.241898
    18  P   -0.078002
    19  C   -0.216786
    20  H    0.065007
    21  H    0.083294
    22  C   -0.176188
    23  H    0.109711
    24  H    0.132614
    25  H    0.103443
    26  C   -0.352584
    27  H    0.108839
    28  H    0.086760
    29  C   -0.077197
    30  H    0.088132
    31  H    0.115428
    32  H    0.060754
    33  C   -0.221134
    34  H    0.077696
    35  H    0.066237
    36  C   -0.147234
    37  H    0.121707
    38  H    0.106651
    39  H    0.103563
 Sum of Mulliken charges =  -2.00000

 Dipole moment (field-independent basis, Debye):
    X=              0.4505    Y=             16.0806    Z=             -3.1650  Tot=             16.3953
 Quadrupole moment (field-independent basis, Debye-Ang):
   XX=           -462.5004   YY=           -386.7730   ZZ=           -448.3244
   XY=             -2.0796   XZ=              1.1054   YZ=             -6.7592

 Normal termination of Gaussian 09 at Tue Feb  4 07:10:07 2020.
