 Gaussian 09, Revision D.01,
 Gaussian 09:  EM64L-G09RevD.01 24-Apr-2013

 ----------------------------------------------------------------------
 #PBEPBE/gen scf=(maxcycle=1000,conver=4) NMR=GIAO Scrf=(solvent=Chloro
 form)
 ----------------------------------------------------------------------

 -----------
 estrutura 7
 -----------
 Symbolic Z-matrix:
 Charge =  0 Multiplicity = 1

                         Standard orientation:
 ---------------------------------------------------------------------
 Center     Atomic      Atomic             Coordinates (Angstroms)
 Number     Number       Type             X           Y           Z
 ---------------------------------------------------------------------
      1         78           0       -0.001367    0.432093   -0.045876
      2         17           0        0.000568    2.737674   -0.761423
      3         50           0        0.004664   -2.079663    0.766729
      4         17           0        1.823568   -2.847506    2.155928
      5         17           0        0.003619   -3.803038   -0.912106
      6         17           0       -1.801984   -2.869005    2.162421
      7         15           0        2.404114    0.445174   -0.108552
      8         15           0       -2.404476    0.427511   -0.130288
      9          6           0       -3.211090    1.841985   -1.001792
     10          6           0       -3.251161    3.090840   -0.354486
     11          6           0       -3.799351    1.718306   -2.269000
     12          6           0       -3.871700    4.186051   -0.951739
     13          1           0       -2.802180    3.217255    0.632072
     14          6           0       -4.419533    2.812407   -2.880528
     15          1           0       -3.796191    0.764041   -2.796274
     16          6           0       -4.452460    4.039574   -2.216689
     17          1           0       -3.903753    5.150642   -0.442988
     18          6           0       -3.001392   -1.062158   -1.028091
     19          6           0       -3.976302   -1.938186   -0.525739
     20          6           0       -2.426930   -1.332109   -2.284885
     21          6           0       -4.386139   -3.047674   -1.269105
     22          1           0       -4.413320   -1.780189    0.460034
     23          6           0       -2.839381   -2.428682   -3.040149
     24          1           0       -1.639855   -0.684823   -2.681719
     25          6           0       -3.821891   -3.280919   -2.525415
     26          1           0       -5.136972   -3.732116   -0.871110
     27          6           0       -3.219510    0.502724    1.514703
     28          6           0       -4.621820    0.588224    1.611740
     29          6           0       -2.455416    0.552965    2.690525
     30          6           0       -5.246873    0.688193    2.853829
     31          1           0       -5.242308    0.587076    0.712878
     32          6           0       -3.069138    0.666416    3.939691
     33          1           0       -1.365822    0.511299    2.639545
     34          6           0       -4.462979    0.725759    4.013141
     35          1           0       -6.334302    0.746203    2.925983
     36          6           0        3.033507   -1.048922   -0.978568
     37          6           0        4.077621   -1.853416   -0.495972
     38          6           0        2.424254   -1.387968   -2.200991
     39          6           0        4.519297   -2.958314   -1.226344
     40          1           0        4.546413   -1.642277    0.464979
     41          6           0        2.865655   -2.482391   -2.943602
     42          1           0        1.583685   -0.800009   -2.578715
     43          6           0        3.916337   -3.260887   -2.450197
     44          1           0        5.324677   -3.586741   -0.843869
     45          6           0        3.205113    0.559075    1.540999
     46          6           0        4.602640    0.688794    1.647388
     47          6           0        2.433455    0.588414    2.712042
     48          6           0        5.216224    0.813228    2.893046
     49          1           0        5.228006    0.705451    0.752692
     50          6           0        3.035408    0.724068    3.964656
     51          1           0        1.346619    0.515002    2.655761
     52          6           0        4.425257    0.828860    4.047112
     53          1           0        2.429595    0.748490    4.871090
     54          6           0        3.192812    1.853756   -1.005731
     55          6           0        3.273029    3.103110   -0.363467
     56          6           0        3.713213    1.726370   -2.301666
     57          6           0        3.869774    4.194150   -0.992439
     58          1           0        2.875599    3.233805    0.644171
     59          6           0        4.307982    2.815966   -2.945037
     60          1           0        3.675340    0.772280   -2.828287
     61          6           0        4.384007    4.043461   -2.284606
     62          1           0        3.933895    5.158873   -0.486870
     63          1           0        6.299979    0.906960    2.971516
     64          1           0        4.716086    2.708054   -3.951001
     65          1           0        2.388399   -2.741419   -3.889535
     66          1           0       -4.880827    2.707752   -3.863959
     67          1           0       -2.469537    0.706529    4.850423
     68          1           0       -2.392120   -2.632874   -4.013834
     69         17           0       -4.336977   -4.663359   -3.459457
     70         17           0       -5.240374    0.860686    5.570195
     71         17           0        5.187111    0.995069    5.608615
     72         17           0        4.470903   -4.638771   -3.367790
     73         17           0        5.135510    5.408254   -3.077342
     74         17           0       -5.234143    5.409636   -2.969880
 ---------------------------------------------------------------------

 SCF Done:  E(RPBE-PBE) =  -29757.0504201     A.U. after   18 cycles

      1  Pt   Isotropic =  3228.1625   Anisotropy =  1120.4508

      2  Cl   Isotropic =   695.4133   Anisotropy =   166.3858

      3  Sn   Isotropic =  2116.6663   Anisotropy =   762.0916

      4  Cl   Isotropic =   742.5673   Anisotropy =   270.0856

      5  Cl   Isotropic =   753.5676   Anisotropy =   304.3285

      6  Cl   Isotropic =   744.3275   Anisotropy =   266.3049

      7  P    Isotropic =   257.6656   Anisotropy =    85.3550

      8  P    Isotropic =   258.0726   Anisotropy =    84.3984

      9  C    Isotropic =    43.3458   Anisotropy =   163.3458

     10  C    Isotropic =    40.0668   Anisotropy =   185.9061

     11  C    Isotropic =    48.8671   Anisotropy =   177.6655

     12  C    Isotropic =    51.9143   Anisotropy =   149.9463

     13  H    Isotropic =    24.2878   Anisotropy =    12.1332

     14  C    Isotropic =    52.2698   Anisotropy =   146.7261

     15  H    Isotropic =    24.1836   Anisotropy =    13.8676

     16  C    Isotropic =    34.7339   Anisotropy =   113.9268

     17  H    Isotropic =    24.1366   Anisotropy =     8.5156

     18  C    Isotropic =    49.6275   Anisotropy =   179.0264

     19  C    Isotropic =    47.2095   Anisotropy =   186.5555

     20  C    Isotropic =    43.7605   Anisotropy =   186.1557

     21  C    Isotropic =    48.3698   Anisotropy =   156.5055

     22  H    Isotropic =    23.8877   Anisotropy =    10.1139

     23  C    Isotropic =    50.8662   Anisotropy =   160.9057

     24  H    Isotropic =    23.3667   Anisotropy =    12.0339

     25  C    Isotropic =    25.1042   Anisotropy =   111.1200

     26  H    Isotropic =    23.7198   Anisotropy =     7.5228

     27  C    Isotropic =    46.6550   Anisotropy =   154.1523

     28  C    Isotropic =    42.0951   Anisotropy =   178.0458

     29  C    Isotropic =    35.1902   Anisotropy =   167.1211

     30  C    Isotropic =    49.9842   Anisotropy =   153.5812

     31  H    Isotropic =    24.0656   Anisotropy =    12.0967

     32  C    Isotropic =    49.6803   Anisotropy =   151.7099

     33  H    Isotropic =    22.8322   Anisotropy =    15.1095

     34  C    Isotropic =    34.1605   Anisotropy =   127.7404

     35  H    Isotropic =    23.7448   Anisotropy =     7.4825

     36  C    Isotropic =    49.8930   Anisotropy =   179.8201

     37  C    Isotropic =    48.0786   Anisotropy =   186.3873

     38  C    Isotropic =    42.5892   Anisotropy =   185.3870

     39  C    Isotropic =    49.9308   Anisotropy =   157.2849

     40  H    Isotropic =    23.8820   Anisotropy =    10.3935

     41  C    Isotropic =    50.7295   Anisotropy =   159.9429

     42  H    Isotropic =    23.3261   Anisotropy =    12.2585

     43  C    Isotropic =    26.1413   Anisotropy =   105.4585

     44  H    Isotropic =    23.8188   Anisotropy =     7.4720

     45  C    Isotropic =    47.2104   Anisotropy =   153.1986

     46  C    Isotropic =    42.1161   Anisotropy =   177.9190

     47  C    Isotropic =    35.2328   Anisotropy =   167.9864

     48  C    Isotropic =    49.9487   Anisotropy =   152.9341

     49  H    Isotropic =    24.0166   Anisotropy =    12.0855

     50  C    Isotropic =    49.4080   Anisotropy =   151.6421

     51  H    Isotropic =    22.8460   Anisotropy =    15.1367

     52  C    Isotropic =    34.4789   Anisotropy =   127.5512

     53  H    Isotropic =    23.5520   Anisotropy =    10.5185

     54  C    Isotropic =    44.7181   Anisotropy =   167.3808

     55  C    Isotropic =    40.4515   Anisotropy =   188.6554

     56  C    Isotropic =    49.0562   Anisotropy =   179.5089

     57  C    Isotropic =    52.0408   Anisotropy =   150.5877

     58  H    Isotropic =    24.3448   Anisotropy =    12.1807

     59  C    Isotropic =    52.3654   Anisotropy =   148.6253

     60  H    Isotropic =    24.2544   Anisotropy =    13.8116

     61  C    Isotropic =    32.7388   Anisotropy =   108.4514

     62  H    Isotropic =    24.1020   Anisotropy =     8.4374

     63  H    Isotropic =    23.7216   Anisotropy =     7.4662

     64  H    Isotropic =    24.0283   Anisotropy =     8.7925

     65  H    Isotropic =    23.4932   Anisotropy =     8.9554

     66  H    Isotropic =    24.0145   Anisotropy =     8.7120

     67  H    Isotropic =    23.5540   Anisotropy =    10.4642

     68  H    Isotropic =    23.4947   Anisotropy =     8.5382

     69  Cl   Isotropic =   633.7302   Anisotropy =   477.8269

     70  Cl   Isotropic =   634.6740   Anisotropy =   468.8464

     71  Cl   Isotropic =   635.1803   Anisotropy =   468.7753

     72  Cl   Isotropic =   634.2323   Anisotropy =   480.1249

     73  Cl   Isotropic =   642.2456   Anisotropy =   477.1046

     74  Cl   Isotropic =   642.9948   Anisotropy =   475.0634

 The electronic state is 1-A.
 Alpha  occ. eigenvalues -- ********************-427.55732-414.88799-414.88725
 Alpha  occ. eigenvalues -- -414.88463-149.66641-141.94452-141.94446-141.94378
 Alpha  occ. eigenvalues -- -100.60613-100.60599-100.60366-100.60364-100.60250
 Alpha  occ. eigenvalues -- -100.60248-100.56232-100.56153-100.56146-100.53196
 Alpha  occ. eigenvalues --  -99.93778 -92.09655 -92.09523 -92.09135 -79.05532
 Alpha  occ. eigenvalues --  -79.05405 -79.05200 -79.05118 -79.05071 -76.33487
 Alpha  occ. eigenvalues --  -76.33486 -28.83039 -25.17678 -25.17659 -25.17441
 Alpha  occ. eigenvalues --  -20.85240 -17.72563 -17.72562 -17.72415 -17.72404
 Alpha  occ. eigenvalues --  -17.72362 -17.42120 -17.41866 -17.41049 -11.60505
 Alpha  occ. eigenvalues --  -11.60056 -11.59648 -11.59471 -11.59381  -9.97851
 Alpha  occ. eigenvalues --   -9.97848  -9.97542  -9.97540  -9.97239  -9.97231
 Alpha  occ. eigenvalues --   -9.93870  -9.93859  -9.93806  -9.93786  -9.93461
 Alpha  occ. eigenvalues --   -9.93452  -9.92908  -9.92902  -9.92862  -9.92862
 Alpha  occ. eigenvalues --   -9.92788  -9.92767  -9.92561  -9.92560  -9.92476
 Alpha  occ. eigenvalues --   -9.92475  -9.92386  -9.92382  -9.92297  -9.92276
 Alpha  occ. eigenvalues --   -9.92243  -9.92232  -9.92220  -9.92219  -9.92209
 Alpha  occ. eigenvalues --   -9.92204  -9.91933  -9.91931  -9.91870  -9.91869
 Alpha  occ. eigenvalues --   -9.18425  -9.18412  -9.18178  -9.18176  -9.18063
 Alpha  occ. eigenvalues --   -9.18061  -9.14088  -9.14017  -9.14010  -9.11028
 Alpha  occ. eigenvalues --   -7.02584  -7.02570  -7.02337  -7.02334  -7.02217
 Alpha  occ. eigenvalues --   -7.02215  -7.01460  -7.01447  -7.01372  -7.01359
 Alpha  occ. eigenvalues --   -7.01211  -7.01209  -7.01127  -7.01125  -7.01097
 Alpha  occ. eigenvalues --   -7.01094  -7.01015  -7.01013  -6.97912  -6.97830
 Alpha  occ. eigenvalues --   -6.97824  -6.97256  -6.97250  -6.97195  -6.97187
 Alpha  occ. eigenvalues --   -6.97178  -6.97172  -6.94833  -6.94269  -6.94145
 Alpha  occ. eigenvalues --   -6.36403  -6.36401  -4.58950  -4.58949  -4.58927
 Alpha  occ. eigenvalues --   -4.58924  -4.58666  -4.58665  -4.51778  -3.25231
 Alpha  occ. eigenvalues --   -3.25194  -3.24820  -3.15354  -3.15323  -3.14860
 Alpha  occ. eigenvalues --   -3.14534  -3.14419  -3.14275  -3.14246  -2.88180
 Alpha  occ. eigenvalues --   -1.83357  -1.82851  -1.80486  -1.04304  -1.04301
 Alpha  occ. eigenvalues --   -1.03892  -1.03872  -1.03793  -0.83597  -0.83567
 Alpha  occ. eigenvalues --   -0.83321  -0.83309  -0.83008  -0.83007  -0.79322
 Alpha  occ. eigenvalues --   -0.79295  -0.78299  -0.78282  -0.77928  -0.77923
 Alpha  occ. eigenvalues --   -0.73016  -0.71809  -0.71724  -0.71302  -0.71212
 Alpha  occ. eigenvalues --   -0.70904  -0.70870  -0.70650  -0.70646  -0.70306
 Alpha  occ. eigenvalues --   -0.70285  -0.68632  -0.68439  -0.68420  -0.68022
 Alpha  occ. eigenvalues --   -0.67881  -0.61359  -0.61094  -0.58435  -0.58371
 Alpha  occ. eigenvalues --   -0.57910  -0.57887  -0.57489  -0.57464  -0.55929
 Alpha  occ. eigenvalues --   -0.55900  -0.55634  -0.55624  -0.53557  -0.53343
 Alpha  occ. eigenvalues --   -0.48862  -0.48837  -0.48555  -0.48539  -0.46770
 Alpha  occ. eigenvalues --   -0.46378  -0.45075  -0.44935  -0.44525  -0.44499
 Alpha  occ. eigenvalues --   -0.44151  -0.44133  -0.43298  -0.42953  -0.42891
 Alpha  occ. eigenvalues --   -0.42717  -0.42703  -0.42129  -0.41944  -0.40550
 Alpha  occ. eigenvalues --   -0.40517  -0.40387  -0.40324  -0.40297  -0.40232
 Alpha  occ. eigenvalues --   -0.39884  -0.39809  -0.39646  -0.39601  -0.38930
 Alpha  occ. eigenvalues --   -0.37710  -0.37582  -0.37561  -0.37254  -0.37154
 Alpha  occ. eigenvalues --   -0.37032  -0.36795  -0.35543  -0.34627  -0.34422
 Alpha  occ. eigenvalues --   -0.33994  -0.33972  -0.33769  -0.33691  -0.33556
 Alpha  occ. eigenvalues --   -0.33316  -0.33295  -0.33164  -0.33123  -0.32594
 Alpha  occ. eigenvalues --   -0.32507  -0.32391  -0.31803  -0.31753  -0.31347
 Alpha  occ. eigenvalues --   -0.31094  -0.30951  -0.29973  -0.29401  -0.29317
 Alpha  occ. eigenvalues --   -0.28929  -0.28915  -0.28721  -0.28715  -0.28583
 Alpha  occ. eigenvalues --   -0.28578  -0.28368  -0.28319  -0.28089  -0.27672
 Alpha  occ. eigenvalues --   -0.27063  -0.26884  -0.26833  -0.25835  -0.25808
 Alpha  occ. eigenvalues --   -0.25478  -0.25450  -0.25346  -0.25167  -0.24951
 Alpha  occ. eigenvalues --   -0.24852  -0.24414  -0.24335  -0.23818  -0.23539
 Alpha  occ. eigenvalues --   -0.23274  -0.22718  -0.22634  -0.22129
 Alpha virt. eigenvalues --   -0.12660  -0.09002  -0.08926  -0.08134  -0.08041
 Alpha virt. eigenvalues --   -0.07842  -0.07738  -0.07511  -0.07429  -0.07262
 Alpha virt. eigenvalues --   -0.06713  -0.06581  -0.06117  -0.05834  -0.03660

 Mulliken charges:
               1
     1  Pt   0.171816
     2  Cl  -0.397570
     3  Sn   0.270560
     4  Cl  -0.142691
     5  Cl  -0.164642
     6  Cl  -0.139848
     7  P    0.990469
     8  P    1.011764
     9  C   -1.000180
    10  C    0.449187
    11  C    0.168109
    12  C    0.093017
    13  H    0.095519
    14  C    0.011415
    15  H    0.097283
    16  C   -0.340270
    17  H    0.130298
    18  C   -0.873667
    19  C    0.129401
    20  C    0.402645
    21  C    0.018664
    22  H    0.095606
    23  C    0.197836
    24  H    0.062249
    25  C   -0.354751
    26  H    0.128228
    27  C   -0.834975
    28  C    0.212317
    29  C    0.265455
    30  C    0.231073
    31  H    0.103123
    32  C   -0.105086
    33  H    0.071363
    34  C   -0.398726
    35  H    0.131385
    36  C   -0.877234
    37  C    0.127358
    38  C    0.355028
    39  C    0.022731
    40  H    0.090849
    41  C    0.239293
    42  H    0.058939
    43  C   -0.329815
    44  H    0.128618
    45  C   -0.864187
    46  C    0.238916
    47  C    0.282479
    48  C    0.233232
    49  H    0.100482
    50  C   -0.118087
    51  H    0.071570
    52  C   -0.406050
    53  H    0.124256
    54  C   -0.970942
    55  C    0.442185
    56  C    0.144143
    57  C    0.080108
    58  H    0.094699
    59  C    0.017284
    60  H    0.098185
    61  C   -0.331424
    62  H    0.130173
    63  H    0.130825
    64  H    0.129322
    65  H    0.116362
    66  H    0.130190
    67  H    0.124505
    68  H    0.118037
    69  Cl  -0.114194
    70  Cl  -0.117175
    71  Cl  -0.117140
    72  Cl  -0.116297
    73  Cl  -0.126728
    74  Cl  -0.126872
 Sum of Mulliken charges =   0.00000

 Dipole moment (field-independent basis, Debye):
    X=              0.0084    Y=              3.8602    Z=             -1.0983  Tot=              4.0134
 Quadrupole moment (field-independent basis, Debye-Ang):
   XX=           -387.0200   YY=           -467.7085   ZZ=           -416.7164
   XY=              0.9172   XZ=              0.6946   YZ=             20.3860

 Normal termination of Gaussian 09 at Fri Sep  7 18:48:10 2018.
