 Gaussian 09, Revision D.01,
 Gaussian 09:  EM64L-G09RevD.01 24-Apr-2013

 ----------------------------------------------------------------------
 #PBEPBE/gen scf=(maxcycle=500,conver=3) NMR=GIAO Scrf=(solvent=Dichlor
 omethane)
 ----------------------------------------------------------------------

 -------------
 estrutura 107
 -------------
 Symbolic Z-matrix:
 Charge =  0 Multiplicity = 1

                         Standard orientation:
 ---------------------------------------------------------------------
 Center     Atomic      Atomic             Coordinates (Angstroms)
 Number     Number       Type             X           Y           Z
 ---------------------------------------------------------------------
      1         78           0        0.320472    0.600848   -0.132160
      2         15           0        2.674674    0.094836   -0.036864
      3          6           0        3.389270   -1.614512   -0.051412
      4          6           0        3.852596   -2.244137    1.115202
      5          6           0        3.519393   -2.282060   -1.282403
      6          6           0        4.449052   -3.507118    1.049785
      7          1           0        3.761062   -1.752779    2.083478
      8          6           0        4.114824   -3.543417   -1.344043
      9          1           0        3.162572   -1.816015   -2.202874
     10          6           0        4.585712   -4.158314   -0.178529
     11          1           0        4.809280   -3.979702    1.967524
     12          1           0        4.211277   -4.046479   -2.309120
     13          1           0        5.059005   -5.142000   -0.228671
     14          6           0        3.256013    0.800929    1.565078
     15          6           0        4.322253    1.706670    1.667486
     16          6           0        2.554332    0.434548    2.729317
     17          6           0        4.689775    2.223869    2.914328
     18          1           0        4.865402    2.033502    0.775384
     19          6           0        2.928349    0.950220    3.972276
     20          1           0        1.708491   -0.249901    2.665355
     21          6           0        3.997431    1.845875    4.068311
     22          1           0        5.519293    2.939963    2.978066
     23          1           0        2.375319    0.662234    4.865189
     24          1           0        4.284243    2.256704    5.039294
     25          6           0        3.636184    0.871725   -1.405027
     26          6           0        5.036470    0.726382   -1.449245
     27          6           0        2.989531    1.558654   -2.444314
     28          6           0        5.772834    1.286043   -2.495148
     29          1           0        5.558292    0.165090   -0.671079
     30          6           0        3.730067    2.104806   -3.498232
     31          1           0        1.905939    1.669328   -2.430615
     32          6           0        5.120902    1.979246   -3.521666
     33          1           0        6.860239    1.175582   -2.510389
     34          1           0        3.213600    2.632685   -4.302697
     35          1           0        5.698034    2.412294   -4.342718
     36         50           0       -0.506925   -1.876296   -0.114355
     37         17           0        1.068377    2.938475    0.046919
     38         15           0       -1.939144    1.344328   -0.028480
     39          6           0       -2.232930    3.160222   -0.212308
     40          6           0       -2.044900    3.734627   -1.483115
     41          6           0       -2.650743    3.973581    0.851940
     42          6           0       -2.273068    5.096588   -1.683313
     43          1           0       -1.721333    3.117896   -2.325519
     44          6           0       -2.875545    5.340442    0.647365
     45          1           0       -2.807110    3.552919    1.846510
     46          6           0       -2.687160    5.904902   -0.616665
     47          1           0       -2.124150    5.529193   -2.676325
     48          1           0       -3.201218    5.962345    1.485844
     49          1           0       -2.864019    6.972006   -0.773538
     50          6           0       -3.035796    0.684226   -1.354060
     51          6           0       -4.440583    0.772275   -1.302148
     52          6           0       -2.426546    0.206665   -2.529551
     53          6           0       -5.213900    0.331932   -2.379595
     54          1           0       -4.944016    1.196751   -0.430759
     55          6           0       -3.203186   -0.199390   -3.620368
     56          1           0       -1.335909    0.167541   -2.599900
     57          6           0       -4.597505   -0.153900   -3.541126
     58          1           0       -6.303973    0.377708   -2.315251
     59          1           0       -2.711622   -0.553822   -4.530878
     60          1           0       -5.206698   -0.486262   -4.385833
     61          6           0       -2.557015    0.928301    1.655497
     62          6           0       -3.755550    0.259496    1.946184
     63          6           0       -1.714411    1.314378    2.719474
     64          6           0       -4.115871    0.003775    3.274526
     65          1           0       -4.410644   -0.089279    1.149616
     66          6           0       -2.080168    1.059344    4.041771
     67          1           0       -0.766261    1.816296    2.510360
     68          6           0       -3.286036    0.406024    4.323447
     69          1           0       -5.052005   -0.519442    3.484010
     70          1           0       -1.416892    1.367734    4.853774
     71          1           0       -3.571865    0.204177    5.358273
     72         17           0        0.485806   -3.017418    1.811159
     73         17           0        0.247515   -3.120025   -2.078197
     74          6           0       -2.489159   -2.775342    0.038438
     75          6           0       -3.232815   -3.061903   -1.117302
     76          6           0       -3.023406   -3.104648    1.294034
     77          6           0       -4.496687   -3.654789   -1.017861
     78          1           0       -2.829272   -2.834657   -2.106493
     79          6           0       -4.287277   -3.699026    1.392290
     80          1           0       -2.450513   -2.913851    2.204578
     81          6           0       -5.027164   -3.971128    0.237238
     82          1           0       -5.065809   -3.873454   -1.925635
     83          1           0       -4.692370   -3.952492    2.376047
     84          1           0       -6.014202   -4.434505    0.314094
 ---------------------------------------------------------------------

 SCF Done:  E(RPBE-PBE) =  -26773.7128228     A.U. after    8 cycles

      1  Pt   Isotropic =  3135.6622   Anisotropy =  1480.3249

      2  P    Isotropic =   282.7093   Anisotropy =    59.2709

      3  C    Isotropic =   172.8017   Anisotropy =   187.5503

      4  C    Isotropic =   175.6485   Anisotropy =   400.3121

      5  C    Isotropic =   153.7798   Anisotropy =   343.7317

      6  C    Isotropic =   -13.9355   Anisotropy =    69.4209

      7  H    Isotropic =    24.4995   Anisotropy =    13.0943

      8  C    Isotropic =    -8.8600   Anisotropy =    82.2885

      9  H    Isotropic =    24.0888   Anisotropy =    17.8944

     10  C    Isotropic =   -50.0041   Anisotropy =    78.9006

     11  H    Isotropic =    16.0529   Anisotropy =    18.7695

     12  H    Isotropic =    16.4985   Anisotropy =    18.9770

     13  H    Isotropic =    13.0446   Anisotropy =    21.0613

     14  C    Isotropic =   122.9919   Anisotropy =   101.3444

     15  C    Isotropic =   132.8576   Anisotropy =   297.2386

     16  C    Isotropic =    97.5430   Anisotropy =   231.2626

     17  C    Isotropic =   -14.2250   Anisotropy =    72.0312

     18  H    Isotropic =    23.7357   Anisotropy =    12.6035

     19  C    Isotropic =    38.2694   Anisotropy =   120.2710

     20  H    Isotropic =    22.8753   Anisotropy =    12.9406

     21  C    Isotropic =   -17.2115   Anisotropy =    52.1261

     22  H    Isotropic =    17.3201   Anisotropy =    15.7032

     23  H    Isotropic =    19.8006   Anisotropy =    12.9378

     24  H    Isotropic =    15.8846   Anisotropy =    16.3123

     25  C    Isotropic =    85.7742   Anisotropy =    96.4746

     26  C    Isotropic =   159.7154   Anisotropy =   377.6186

     27  C    Isotropic =    78.1108   Anisotropy =   310.9925

     28  C    Isotropic =   -14.0086   Anisotropy =    82.5153

     29  H    Isotropic =    21.7796   Anisotropy =    18.3919

     30  C    Isotropic =    -4.7509   Anisotropy =    91.5208

     31  H    Isotropic =    22.7873   Anisotropy =    12.3188

     32  C    Isotropic =    -6.7550   Anisotropy =   157.8152

     33  H    Isotropic =    14.8537   Anisotropy =    18.0659

     34  H    Isotropic =    17.8877   Anisotropy =    14.6913

     35  H    Isotropic =    11.9869   Anisotropy =    20.6849

     36  Sn   Isotropic =  2010.7719   Anisotropy =   702.6771

     37  Cl   Isotropic =   801.1783   Anisotropy =   280.8481

     38  P    Isotropic =   263.8849   Anisotropy =   118.2673

     39  C    Isotropic =   -10.2626   Anisotropy =   159.6474

     40  C    Isotropic =   -18.4215   Anisotropy =    99.8165

     41  C    Isotropic =     4.6727   Anisotropy =   109.6736

     42  C    Isotropic =    59.2926   Anisotropy =   265.8013

     43  H    Isotropic =    25.5635   Anisotropy =    12.1484

     44  C    Isotropic =    70.9481   Anisotropy =   278.8532

     45  H    Isotropic =    25.6226   Anisotropy =    13.3327

     46  C    Isotropic =    98.3461   Anisotropy =   396.1009

     47  H    Isotropic =    23.3112   Anisotropy =     9.2224

     48  H    Isotropic =    22.8366   Anisotropy =     9.1469

     49  H    Isotropic =    22.4021   Anisotropy =     6.6471

     50  C    Isotropic =    17.8215   Anisotropy =   201.7788

     51  C    Isotropic =    -2.9033   Anisotropy =   113.9929

     52  C    Isotropic =    21.7516   Anisotropy =   137.9987

     53  C    Isotropic =    24.6706   Anisotropy =   188.9434

     54  H    Isotropic =    22.4163   Anisotropy =    13.8259

     55  C    Isotropic =    48.5626   Anisotropy =   196.8492

     56  H    Isotropic =    23.4188   Anisotropy =    16.2741

     57  C    Isotropic =   103.0092   Anisotropy =   409.9765

     58  H    Isotropic =    21.1489   Anisotropy =     8.8105

     59  H    Isotropic =    23.9302   Anisotropy =     8.4026

     60  H    Isotropic =    20.3625   Anisotropy =     9.1226

     61  C    Isotropic =    35.0835   Anisotropy =   228.9987

     62  C    Isotropic =    31.3815   Anisotropy =   154.3280

     63  C    Isotropic =    33.8017   Anisotropy =   184.9352

     64  C    Isotropic =    42.5476   Anisotropy =   186.9263

     65  H    Isotropic =    24.2269   Anisotropy =    10.4384

     66  C    Isotropic =    70.8514   Anisotropy =   224.1353

     67  H    Isotropic =    23.9865   Anisotropy =    11.2440

     68  C    Isotropic =    36.3948   Anisotropy =   167.0632

     69  H    Isotropic =    22.3480   Anisotropy =     7.9617

     70  H    Isotropic =    24.5497   Anisotropy =     6.8583

     71  H    Isotropic =    24.0308   Anisotropy =     4.0728

     72  Cl   Isotropic =   844.0549   Anisotropy =   187.9950

     73  Cl   Isotropic =   848.0754   Anisotropy =   195.1368

     74  C    Isotropic =    11.2524   Anisotropy =   187.8860

     75  C    Isotropic =    44.0824   Anisotropy =   186.3245

     76  C    Isotropic =    21.5699   Anisotropy =   170.2737

     77  C    Isotropic =    85.7787   Anisotropy =   212.5720

     78  H    Isotropic =    25.8486   Anisotropy =    11.6102

     79  C    Isotropic =    62.1785   Anisotropy =   171.3846

     80  H    Isotropic =    25.4972   Anisotropy =    12.6605

     81  C    Isotropic =    71.0172   Anisotropy =   116.3222

     82  H    Isotropic =    30.9206   Anisotropy =    12.0174

     83  H    Isotropic =    28.7377   Anisotropy =     6.2710

     84  H    Isotropic =    32.4472   Anisotropy =    18.0390

 The electronic state is 1-A.
 Alpha  occ. eigenvalues -- ********************-427.54369-414.87430-414.87356
 Alpha  occ. eigenvalues -- -414.87100-149.64315-141.92140-141.92127-141.92010
 Alpha  occ. eigenvalues -- -100.55510-100.55365-100.51164 -99.92457 -92.08323
 Alpha  occ. eigenvalues --  -92.08208 -92.07813 -79.04194 -79.04076 -79.03863
 Alpha  occ. eigenvalues --  -79.03792 -79.03739 -76.32097 -76.31641 -28.80723
 Alpha  occ. eigenvalues --  -25.15431 -25.15380 -25.15020 -20.83969 -17.70320
 Alpha  occ. eigenvalues --  -17.70316 -17.70080 -17.70044 -17.69972 -17.40835
 Alpha  occ. eigenvalues --  -17.40613 -17.39776 -11.59221 -11.58800 -11.58366
 Alpha  occ. eigenvalues --  -11.58215 -11.58107  -9.93344  -9.93341  -9.93078
 Alpha  occ. eigenvalues --   -9.92951  -9.92789  -9.92105  -9.91775  -9.91570
 Alpha  occ. eigenvalues --   -9.91419  -9.91320  -9.91306  -9.91216  -9.91193
 Alpha  occ. eigenvalues --   -9.91100  -9.91068  -9.91049  -9.90999  -9.90966
 Alpha  occ. eigenvalues --   -9.90785  -9.90721  -9.90667  -9.90647  -9.90580
 Alpha  occ. eigenvalues --   -9.90517  -9.90457  -9.90355  -9.90314  -9.90312
 Alpha  occ. eigenvalues --   -9.90292  -9.90279  -9.90223  -9.90202  -9.90194
 Alpha  occ. eigenvalues --   -9.89996  -9.89977  -9.89961  -9.89939  -9.89838
 Alpha  occ. eigenvalues --   -9.89782  -9.89752  -9.89658  -9.89342  -9.13318
 Alpha  occ. eigenvalues --   -9.13183  -9.09160  -6.97095  -6.96954  -6.96540
 Alpha  occ. eigenvalues --   -6.96490  -6.96408  -6.96355  -6.92892  -6.92388
 Alpha  occ. eigenvalues --   -6.92317  -6.35128  -6.34736  -4.57665  -4.57649
 Alpha  occ. eigenvalues --   -4.57375  -4.57281  -4.57244  -4.56972  -4.49495
 Alpha  occ. eigenvalues --   -3.23079  -3.22993  -3.22335  -3.14084  -3.14057
 Alpha  occ. eigenvalues --   -3.13581  -3.13278  -3.13145  -3.13015  -3.12978
 Alpha  occ. eigenvalues --   -2.86932  -1.82152  -1.81575  -1.79203  -1.02254
 Alpha  occ. eigenvalues --   -1.02044  -1.01598  -1.01510  -1.01480  -0.80142
 Alpha  occ. eigenvalues --   -0.80030  -0.79440  -0.79083  -0.78835  -0.78832
 Alpha  occ. eigenvalues --   -0.78048  -0.72085  -0.71916  -0.71393  -0.70488
 Alpha  occ. eigenvalues --   -0.69393  -0.69337  -0.69070  -0.68961  -0.68865
 Alpha  occ. eigenvalues --   -0.68729  -0.68509  -0.68397  -0.68337  -0.68269
 Alpha  occ. eigenvalues --   -0.67818  -0.67403  -0.66885  -0.61247  -0.60946
 Alpha  occ. eigenvalues --   -0.56459  -0.56295  -0.56214  -0.55798  -0.55467
 Alpha  occ. eigenvalues --   -0.55356  -0.55080  -0.54935  -0.54780  -0.54751
 Alpha  occ. eigenvalues --   -0.54555  -0.53847  -0.52238  -0.51899  -0.48009
 Alpha  occ. eigenvalues --   -0.47795  -0.47698  -0.47549  -0.46981  -0.46135
 Alpha  occ. eigenvalues --   -0.45656  -0.42605  -0.42315  -0.42207  -0.41994
 Alpha  occ. eigenvalues --   -0.41854  -0.41636  -0.41457  -0.41352  -0.41013
 Alpha  occ. eigenvalues --   -0.40972  -0.40780  -0.40617  -0.40429  -0.40233
 Alpha  occ. eigenvalues --   -0.39687  -0.39088  -0.38701  -0.38598  -0.38483
 Alpha  occ. eigenvalues --   -0.38367  -0.38213  -0.38192  -0.37970  -0.37556
 Alpha  occ. eigenvalues --   -0.37522  -0.37337  -0.36827  -0.35356  -0.34927
 Alpha  occ. eigenvalues --   -0.34775  -0.34482  -0.34457  -0.34017  -0.33789
 Alpha  occ. eigenvalues --   -0.33466  -0.33274  -0.32783  -0.32187  -0.32004
 Alpha  occ. eigenvalues --   -0.31796  -0.31618  -0.31575  -0.31341  -0.31212
 Alpha  occ. eigenvalues --   -0.31046  -0.30929  -0.30491  -0.30231  -0.30207
 Alpha  occ. eigenvalues --   -0.29907  -0.28853  -0.28573  -0.28032  -0.27744
 Alpha  occ. eigenvalues --   -0.27269  -0.26889  -0.26689  -0.26357  -0.26067
 Alpha  occ. eigenvalues --   -0.25315  -0.25184  -0.24910  -0.24791  -0.24704
 Alpha  occ. eigenvalues --   -0.24580  -0.24190  -0.24059  -0.23897  -0.23790
 Alpha  occ. eigenvalues --   -0.23440  -0.23243  -0.23109  -0.22906  -0.22244
 Alpha  occ. eigenvalues --   -0.21750  -0.21408  -0.21279
 Alpha virt. eigenvalues --   -0.10899  -0.08085  -0.07516  -0.07075  -0.06656
 Alpha virt. eigenvalues --   -0.06480  -0.06345  -0.06112  -0.05892  -0.05789
 Alpha virt. eigenvalues --   -0.05664  -0.05321  -0.04886  -0.04843  -0.04620

 Mulliken charges:
               1
     1  Pt   0.238740
     2  P    1.021165
     3  C   -0.909535
     4  C    0.284699
     5  C    0.490805
     6  C   -0.137640
     7  H    0.086339
     8  C   -0.081100
     9  H    0.104035
    10  C   -0.532556
    11  H    0.139774
    12  H    0.139493
    13  H    0.149887
    14  C   -0.841114
    15  C    0.190828
    16  C    0.594095
    17  C   -0.286095
    18  H    0.099941
    19  C    0.014218
    20  H    0.063076
    21  C   -0.540511
    22  H    0.145180
    23  H    0.143009
    24  H    0.154104
    25  C   -0.935983
    26  C    0.379578
    27  C    0.371095
    28  C    0.066661
    29  H    0.101286
    30  C   -0.291603
    31  H    0.093074
    32  C   -0.594408
    33  H    0.144459
    34  H    0.141463
    35  H    0.153999
    36  Sn   0.337216
    37  Cl  -0.440123
    38  P    1.080394
    39  C   -0.911368
    40  C    0.376836
    41  C    0.344432
    42  C   -0.011609
    43  H    0.086931
    44  C   -0.196647
    45  H    0.102211
    46  C   -0.554715
    47  H    0.147782
    48  H    0.144036
    49  H    0.152341
    50  C   -0.860429
    51  C    0.264373
    52  C    0.403494
    53  C   -0.065651
    54  H    0.094559
    55  C    0.014797
    56  H    0.056409
    57  C   -0.549063
    58  H    0.137015
    59  H    0.127669
    60  H    0.142584
    61  C   -0.735662
    62  C    0.309300
    63  C    0.418507
    64  C   -0.189923
    65  H    0.064902
    66  C   -0.059583
    67  H    0.063397
    68  C   -0.539971
    69  H    0.129661
    70  H    0.140488
    71  H    0.148021
    72  Cl  -0.212987
    73  Cl  -0.230905
    74  C   -0.128912
    75  C    0.043835
    76  C    0.195532
    77  C   -0.106957
    78  H    0.106939
    79  C   -0.181127
    80  H    0.103410
    81  C   -0.564988
    82  H    0.144587
    83  H    0.145033
    84  H    0.153472
 Sum of Mulliken charges =   0.00000

 Dipole moment (field-independent basis, Debye):
    X=             -3.7865    Y=              4.0485    Z=              0.0322  Tot=              5.5433
 Quadrupole moment (field-independent basis, Debye-Ang):
   XX=           -297.5311   YY=           -379.7443   ZZ=           -318.5390
   XY=             -3.6429   XZ=             -2.4174   YZ=             -2.9392

 Normal termination of Gaussian 09 at Fri Nov 29 08:09:44 2019.
