 Gaussian 09, Revision D.01,
 Gaussian 09:  EM64L-G09RevD.01 24-Apr-2013

 ----------------------------------------------------------------------
 #PBEPBE/gen scf=(maxcycle=1000,conver=4) NMR=GIAO Scrf=(solvent=Chloro
 form)
 ----------------------------------------------------------------------

 ------------
 estrutura 14
 ------------
 Symbolic Z-matrix:
 Charge =  0 Multiplicity = 1

                         Standard orientation:
 ---------------------------------------------------------------------
 Center     Atomic      Atomic             Coordinates (Angstroms)
 Number     Number       Type             X           Y           Z
 ---------------------------------------------------------------------
      1         78           0       -0.003699    0.378039    0.024418
      2         50           0        0.000826   -2.199877    0.395718
      3         17           0       -0.025164   -3.757049   -1.446848
      4         17           0        1.829290   -3.108188    1.689226
      5         17           0       -1.812155   -3.077558    1.735143
      6         17           0        0.000315    2.800100   -0.017335
      7         33           0        2.490076    0.458310   -0.062489
      8         33           0       -2.493581    0.449264   -0.061697
      9          6           0        3.271399   -1.014230   -1.081701
     10          6           0        4.400728   -1.728974   -0.656296
     11          6           0        2.669543   -1.356315   -2.300899
     12          6           0        4.920604   -2.752724   -1.449062
     13          1           0        4.872109   -1.505202    0.301971
     14          6           0        3.202386   -2.379991   -3.090437
     15          1           0        1.769553   -0.835705   -2.639387
     16          6           0        4.336267   -3.095276   -2.681393
     17          1           0        5.797109   -3.304535   -1.098013
     18          6           0        3.253517    2.035535   -0.938717
     19          6           0        3.442326    3.216148   -0.203672
     20          6           0        3.587450    2.021886   -2.299928
     21          6           0        3.968248    4.352205   -0.820907
     22          1           0        3.180167    3.257830    0.855143
     23          6           0        4.106981    3.167137   -2.909901
     24          1           0        3.452100    1.119257   -2.898833
     25          6           0        4.311528    4.350975   -2.183584
     26          1           0        4.108852    5.262116   -0.230025
     27          6           0        3.351299    0.497998    1.682870
     28          6           0        4.729596    0.730131    1.808745
     29          6           0        2.580221    0.329903    2.842158
     30          6           0        5.322407    0.773823    3.073459
     31          1           0        5.350513    0.891013    0.924789
     32          6           0        3.179903    0.386578    4.101195
     33          1           0        1.504044    0.161678    2.763338
     34          6           0        4.561685    0.601965    4.240904
     35          1           0        2.560630    0.259867    4.993520
     36          6           0       -3.275613   -1.027379   -1.073574
     37          6           0       -4.388322   -1.759235   -0.631946
     38          6           0       -2.689091   -1.357167   -2.304115
     39          6           0       -4.909887   -2.783892   -1.421618
     40          1           0       -4.845190   -1.548600    0.336492
     41          6           0       -3.223334   -2.381911   -3.090327
     42          1           0       -1.798209   -0.827406   -2.653056
     43          6           0       -4.343370   -3.111119   -2.666978
     44          1           0       -2.747510   -2.626838   -4.043894
     45          6           0       -3.257365    2.026223   -0.940624
     46          6           0       -3.461218    3.201139   -0.201606
     47          6           0       -3.574034    2.020159   -2.305363
     48          6           0       -3.984517    4.338758   -0.818478
     49          1           0       -3.213634    3.237058    0.860537
     50          6           0       -4.091466    3.166825   -2.914554
     51          1           0       -3.427378    1.122453   -2.907931
     52          6           0       -4.310384    4.345063   -2.184525
     53          1           0       -4.137123    5.243750   -0.224377
     54          6           0       -3.346873    0.498848    1.686450
     55          6           0       -4.731513    0.692127    1.815834
     56          6           0       -2.560137    0.393644    2.844127
     57          6           0       -5.315391    0.758032    3.083517
     58          1           0       -5.364798    0.804971    0.932054
     59          6           0       -3.150914    0.475712    4.105986
     60          1           0       -1.479413    0.253609    2.759672
     61          6           0       -4.538567    0.652390    4.249887
     62          1           0       -6.396839    0.902972    3.166469
     63          1           0       -4.331894    3.140824   -3.980969
     64          1           0        4.360781    3.135289   -3.973727
     65          1           0        2.715329   -2.634176   -4.035490
     66          1           0       -5.773120   -3.348799   -1.057481
     67          1           0       -2.519629    0.402821    4.997386
     68          1           0        6.398716    0.949618    3.153352
     69          6           0       -4.922530   -4.221717   -3.506027
     70          1           0       -4.938168   -5.172247   -2.949230
     71          1           0       -5.964327   -4.000602   -3.791244
     72          1           0       -4.344343   -4.376589   -4.428396
     73          6           0       -5.167074    0.716126    5.619376
     74          1           0       -6.223031    1.020833    5.567472
     75          1           0       -5.124599   -0.268779    6.116589
     76          1           0       -4.633795    1.427672    6.271839
     77          6           0       -4.900951    5.569339   -2.838799
     78          1           0       -6.003917    5.560935   -2.764784
     79          1           0       -4.549255    6.495133   -2.356025
     80          1           0       -4.646201    5.617512   -3.909487
     81          6           0        4.905248    5.573429   -2.838151
     82          1           0        4.560354    6.498554   -2.353225
     83          1           0        6.006561    5.560634   -2.769182
     84          1           0        4.647434    5.625483   -3.906225
     85          6           0        5.201108    0.639703    5.606321
     86          1           0        4.641999    1.303125    6.290444
     87          1           0        5.206526   -0.366973    6.065541
     88          1           0        6.244716    0.993341    5.556978
     89          6           0        4.906125   -4.213619   -3.517810
     90          1           0        5.979374   -4.055786   -3.718598
     91          1           0        4.816476   -5.180381   -2.994708
     92          1           0        4.386980   -4.302516   -4.483798
 ---------------------------------------------------------------------

 SCF Done:  E(RPBE-PBE) =  -31017.3885674     A.U. after    9 cycles

      1  Pt   Isotropic =  3325.6883   Anisotropy =  1276.9645

      2  Sn   Isotropic =  2103.1128   Anisotropy =   815.0693

      3  Cl   Isotropic =   748.2550   Anisotropy =   318.8214

      4  Cl   Isotropic =   741.2496   Anisotropy =   299.6465

      5  Cl   Isotropic =   741.2858   Anisotropy =   300.5683

      6  Cl   Isotropic =   794.4588   Anisotropy =   324.0399

      7  As   Isotropic =   997.5514   Anisotropy =   200.3232

      8  As   Isotropic =   996.7927   Anisotropy =   201.5113

      9  C    Isotropic =    26.4637   Anisotropy =   147.4797

     10  C    Isotropic =    31.8068   Anisotropy =   155.4074

     11  C    Isotropic =    39.6849   Anisotropy =   167.5082

     12  C    Isotropic =    43.4439   Anisotropy =   166.9614

     13  H    Isotropic =    23.4613   Anisotropy =    12.5894

     14  C    Isotropic =    51.5963   Anisotropy =   165.3995

     15  H    Isotropic =    23.4524   Anisotropy =    11.9015

     16  C    Isotropic =    42.9248   Anisotropy =   217.5991

     17  H    Isotropic =    22.6585   Anisotropy =     9.9487

     18  C    Isotropic =    56.6221   Anisotropy =   173.3570

     19  C    Isotropic =    57.4454   Anisotropy =   207.0437

     20  C    Isotropic =    54.3858   Anisotropy =   194.7155

     21  C    Isotropic =    52.9465   Anisotropy =   149.3183

     22  H    Isotropic =    24.1540   Anisotropy =    13.0687

     23  C    Isotropic =    41.7422   Anisotropy =   142.4118

     24  H    Isotropic =    23.5342   Anisotropy =    14.1854

     25  C    Isotropic =    23.7005   Anisotropy =   164.0629

     26  H    Isotropic =    24.4499   Anisotropy =     8.2092

     27  C    Isotropic =    85.6217   Anisotropy =   193.6810

     28  C    Isotropic =    41.9198   Anisotropy =   158.0134

     29  C    Isotropic =    72.4590   Anisotropy =   206.4534

     30  C    Isotropic =    27.7447   Anisotropy =    99.7163

     31  H    Isotropic =    23.1512   Anisotropy =    13.8620

     32  C    Isotropic =    66.6750   Anisotropy =   171.4949

     33  H    Isotropic =    20.5494   Anisotropy =    18.3144

     34  C    Isotropic =    10.5256   Anisotropy =   113.9838

     35  H    Isotropic =    24.1523   Anisotropy =    10.0274

     36  C    Isotropic =    14.6592   Anisotropy =   121.6723

     37  C    Isotropic =    26.5513   Anisotropy =   148.9345

     38  C    Isotropic =    29.9290   Anisotropy =   153.5656

     39  C    Isotropic =    32.0197   Anisotropy =   156.7823

     40  H    Isotropic =    22.8880   Anisotropy =    12.7416

     41  C    Isotropic =    42.9660   Anisotropy =   160.2099

     42  H    Isotropic =    23.9570   Anisotropy =    11.3135

     43  C    Isotropic =    71.8551   Anisotropy =   350.7720

     44  H    Isotropic =    23.1812   Anisotropy =     9.4227

     45  C    Isotropic =    59.8795   Anisotropy =   176.4801

     46  C    Isotropic =    61.7194   Anisotropy =   214.0770

     47  C    Isotropic =    56.2693   Anisotropy =   197.6706

     48  C    Isotropic =    53.8781   Anisotropy =   146.5346

     49  H    Isotropic =    24.1344   Anisotropy =    13.4654

     50  C    Isotropic =    41.4021   Anisotropy =   139.4784

     51  H    Isotropic =    23.2926   Anisotropy =    14.9608

     52  C    Isotropic =    20.7237   Anisotropy =   148.0385

     53  H    Isotropic =    24.7272   Anisotropy =     8.0686

     54  C    Isotropic =    90.4852   Anisotropy =   195.2065

     55  C    Isotropic =    42.5241   Anisotropy =   155.0678

     56  C    Isotropic =    76.8026   Anisotropy =   213.0029

     57  C    Isotropic =    26.6570   Anisotropy =    93.2881

     58  H    Isotropic =    22.9320   Anisotropy =    13.9283

     59  C    Isotropic =    70.1535   Anisotropy =   173.8906

     60  H    Isotropic =    20.2882   Anisotropy =    18.6144

     61  C    Isotropic =    11.2056   Anisotropy =    95.9293

     62  H    Isotropic =    22.9266   Anisotropy =     8.4200

     63  H    Isotropic =    23.5442   Anisotropy =     9.2607

     64  H    Isotropic =    23.4042   Anisotropy =     9.3531

     65  H    Isotropic =    23.7951   Anisotropy =     8.7608

     66  H    Isotropic =    20.7389   Anisotropy =    12.6602

     67  H    Isotropic =    24.4593   Anisotropy =     9.5306

     68  H    Isotropic =    22.5502   Anisotropy =     9.1031

     69  C    Isotropic =   157.7322   Anisotropy =    45.8719

     70  H    Isotropic =    28.2662   Anisotropy =     8.4824

     71  H    Isotropic =    28.0476   Anisotropy =    10.8332

     72  H    Isotropic =    28.3920   Anisotropy =     8.7616

     73  C    Isotropic =   162.4874   Anisotropy =    39.4505

     74  H    Isotropic =    29.3127   Anisotropy =     8.2012

     75  H    Isotropic =    28.8455   Anisotropy =     9.3542

     76  H    Isotropic =    28.8802   Anisotropy =     8.7098

     77  C    Isotropic =   164.4936   Anisotropy =    35.3379

     78  H    Isotropic =    28.8397   Anisotropy =    10.3407

     79  H    Isotropic =    29.1068   Anisotropy =     7.9569

     80  H    Isotropic =    29.0318   Anisotropy =     8.3571

     81  C    Isotropic =   165.7064   Anisotropy =    33.9192

     82  H    Isotropic =    29.0782   Anisotropy =     8.0726

     83  H    Isotropic =    28.8334   Anisotropy =    10.2418

     84  H    Isotropic =    28.9852   Anisotropy =     8.4553

     85  C    Isotropic =   164.7023   Anisotropy =    34.3759

     86  H    Isotropic =    28.6388   Anisotropy =     8.9225

     87  H    Isotropic =    28.6360   Anisotropy =     9.5061

     88  H    Isotropic =    28.9370   Anisotropy =     8.6340

     89  C    Isotropic =   159.7803   Anisotropy =    42.8789

     90  H    Isotropic =    28.4653   Anisotropy =    10.3792

     91  H    Isotropic =    28.6541   Anisotropy =     8.3569

     92  H    Isotropic =    28.7503   Anisotropy =     8.3182

 The electronic state is 1-A.
 Alpha  occ. eigenvalues -- ********************-427.54468-422.29440-422.29416
 Alpha  occ. eigenvalues -- -414.87511-414.87465-414.87199-149.65796-141.93606
 Alpha  occ. eigenvalues -- -141.93601-141.93533-100.55533-100.55376-100.55327
 Alpha  occ. eigenvalues -- -100.52049 -99.92504 -92.08347 -92.08277 -92.07866
 Alpha  occ. eigenvalues --  -79.04251 -79.04132 -79.03912 -79.03869 -79.03806
 Alpha  occ. eigenvalues --  -53.01145 -53.01122 -47.60408 -47.60404 -47.60385
 Alpha  occ. eigenvalues --  -47.60381 -47.60328 -47.60305 -28.82209 -25.16846
 Alpha  occ. eigenvalues --  -25.16830 -25.16610 -20.83928 -17.71730 -17.71730
 Alpha  occ. eigenvalues --  -17.71582 -17.71571 -17.71530 -17.40738 -17.40607
 Alpha  occ. eigenvalues --  -17.39748 -11.59168 -11.58739 -11.58302 -11.58208
 Alpha  occ. eigenvalues --  -11.58081  -9.92491  -9.92450  -9.92015  -9.92003
 Alpha  occ. eigenvalues --   -9.91928  -9.91910  -9.91762  -9.91696  -9.91381
 Alpha  occ. eigenvalues --   -9.91333  -9.91223  -9.91201  -9.91195  -9.91180
 Alpha  occ. eigenvalues --   -9.91057  -9.91033  -9.90824  -9.90786  -9.90517
 Alpha  occ. eigenvalues --   -9.90510  -9.90493  -9.90477  -9.90470  -9.90444
 Alpha  occ. eigenvalues --   -9.90415  -9.90352  -9.90242  -9.90198  -9.90080
 Alpha  occ. eigenvalues --   -9.89955  -9.89892  -9.89812  -9.89812  -9.89809
 Alpha  occ. eigenvalues --   -9.89808  -9.89764  -9.89147  -9.89081  -9.88858
 Alpha  occ. eigenvalues --   -9.88821  -9.88803  -9.88800  -9.13436  -9.13277
 Alpha  occ. eigenvalues --   -9.13232  -9.09942  -6.97254  -6.97083  -6.97036
 Alpha  occ. eigenvalues --   -6.96602  -6.96595  -6.96452  -6.96439  -6.96409
 Alpha  occ. eigenvalues --   -6.96394  -6.93727  -6.93171  -6.93074  -6.73360
 Alpha  occ. eigenvalues --   -6.73338  -4.86199  -4.86177  -4.86177  -4.86156
 Alpha  occ. eigenvalues --   -4.85960  -4.85936  -4.50995  -3.24443  -3.24414
 Alpha  occ. eigenvalues --   -3.24050  -3.14015  -3.14000  -3.13530  -3.13228
 Alpha  occ. eigenvalues --   -3.13084  -3.13007  -3.12957  -2.86895  -1.81969
 Alpha  occ. eigenvalues --   -1.81679  -1.79253  -1.54057  -1.54042  -1.54036
 Alpha  occ. eigenvalues --   -1.54021  -1.53855  -1.53838  -1.53832  -1.53816
 Alpha  occ. eigenvalues --   -1.53791  -1.53763  -1.03524  -1.03520  -1.03123
 Alpha  occ. eigenvalues --   -1.03105  -1.03050  -0.79681  -0.79664  -0.79148
 Alpha  occ. eigenvalues --   -0.79107  -0.78873  -0.78871  -0.72508  -0.72414
 Alpha  occ. eigenvalues --   -0.72235  -0.70908  -0.70892  -0.70635  -0.70625
 Alpha  occ. eigenvalues --   -0.70597  -0.70435  -0.68790  -0.68773  -0.68420
 Alpha  occ. eigenvalues --   -0.68377  -0.68236  -0.68210  -0.67501  -0.64892
 Alpha  occ. eigenvalues --   -0.64816  -0.62332  -0.62324  -0.62080  -0.62064
 Alpha  occ. eigenvalues --   -0.57635  -0.57377  -0.56088  -0.56056  -0.55575
 Alpha  occ. eigenvalues --   -0.55552  -0.55291  -0.55272  -0.53249  -0.53226
 Alpha  occ. eigenvalues --   -0.52966  -0.52942  -0.51736  -0.51572  -0.45959
 Alpha  occ. eigenvalues --   -0.45940  -0.45661  -0.45650  -0.43863  -0.43404
 Alpha  occ. eigenvalues --   -0.42861  -0.42795  -0.42412  -0.42319  -0.42294
 Alpha  occ. eigenvalues --   -0.42200  -0.42156  -0.40839  -0.40746  -0.40522
 Alpha  occ. eigenvalues --   -0.40432  -0.40186  -0.39994  -0.38461  -0.38312
 Alpha  occ. eigenvalues --   -0.38110  -0.38093  -0.38007  -0.37992  -0.37857
 Alpha  occ. eigenvalues --   -0.37822  -0.37730  -0.37717  -0.37649  -0.37642
 Alpha  occ. eigenvalues --   -0.36379  -0.36227  -0.35853  -0.35846  -0.35710
 Alpha  occ. eigenvalues --   -0.34657  -0.34396  -0.34269  -0.34199  -0.34173
 Alpha  occ. eigenvalues --   -0.34157  -0.33872  -0.33720  -0.33300  -0.33180
 Alpha  occ. eigenvalues --   -0.32880  -0.32855  -0.32646  -0.32588  -0.32298
 Alpha  occ. eigenvalues --   -0.32074  -0.31509  -0.30814  -0.30729  -0.30636
 Alpha  occ. eigenvalues --   -0.30506  -0.30493  -0.30220  -0.30174  -0.29679
 Alpha  occ. eigenvalues --   -0.29599  -0.29241  -0.28572  -0.28170  -0.28106
 Alpha  occ. eigenvalues --   -0.27491  -0.27435  -0.26933  -0.26401  -0.26282
 Alpha  occ. eigenvalues --   -0.26039  -0.25874  -0.24237  -0.24208  -0.24135
 Alpha  occ. eigenvalues --   -0.23861  -0.23812  -0.23653  -0.23587  -0.23491
 Alpha  occ. eigenvalues --   -0.23382  -0.23236  -0.22733  -0.22580  -0.22514
 Alpha  occ. eigenvalues --   -0.21692  -0.21584  -0.21335
 Alpha virt. eigenvalues --   -0.11957  -0.07046  -0.06935  -0.06915  -0.06086
 Alpha virt. eigenvalues --   -0.06013  -0.05739  -0.05693  -0.05665  -0.05502
 Alpha virt. eigenvalues --   -0.05113  -0.05038  -0.04639  -0.04443  -0.02839

 Mulliken charges:
               1
     1  Pt  -0.101159
     2  Sn   0.294755
     3  Cl  -0.185788
     4  Cl  -0.181572
     5  Cl  -0.185983
     6  Cl  -0.443454
     7  As   0.728806
     8  As   0.737201
     9  C   -0.205469
    10  C    0.019249
    11  C    0.239714
    12  C   -0.140650
    13  H    0.083173
    14  C   -0.378733
    15  H    0.070523
    16  C   -0.150591
    17  H    0.109214
    18  C    0.010792
    19  C    0.108355
    20  C    0.036008
    21  C   -0.198461
    22  H    0.101053
    23  C   -0.335098
    24  H    0.092184
    25  C   -0.184962
    26  H    0.107611
    27  C   -0.031760
    28  C    0.105340
    29  C    0.228169
    30  C   -0.278877
    31  H    0.091783
    32  C   -0.433820
    33  H    0.081766
    34  C   -0.199089
    35  H    0.103826
    36  C   -0.205729
    37  C    0.016966
    38  C    0.251619
    39  C   -0.133375
    40  H    0.083938
    41  C   -0.383553
    42  H    0.069692
    43  C   -0.161033
    44  H    0.090172
    45  C    0.005389
    46  C    0.114850
    47  C    0.028040
    48  C   -0.191382
    49  H    0.100861
    50  C   -0.343066
    51  H    0.092011
    52  C   -0.175820
    53  H    0.107507
    54  C   -0.034472
    55  C    0.107914
    56  C    0.220539
    57  C   -0.277365
    58  H    0.091678
    59  C   -0.428791
    60  H    0.082772
    61  C   -0.203940
    62  H    0.107346
    63  H    0.107493
    64  H    0.107593
    65  H    0.091526
    66  H    0.108427
    67  H    0.104314
    68  H    0.107016
    69  C   -0.315111
    70  H    0.145944
    71  H    0.152036
    72  H    0.137913
    73  C   -0.334017
    74  H    0.140537
    75  H    0.153708
    76  H    0.152607
    77  C   -0.371080
    78  H    0.157240
    79  H    0.148130
    80  H    0.148140
    81  C   -0.366945
    82  H    0.146743
    83  H    0.156057
    84  H    0.147504
    85  C   -0.341761
    86  H    0.153650
    87  H    0.155160
    88  H    0.142055
    89  C   -0.318947
    90  H    0.152070
    91  H    0.146470
    92  H    0.138700
 Sum of Mulliken charges =   0.00000

 Dipole moment (field-independent basis, Debye):
    X=              0.0097    Y=              5.2664    Z=             -1.6683  Tot=              5.5243
 Quadrupole moment (field-independent basis, Debye-Ang):
   XX=           -315.3621   YY=           -399.4396   ZZ=           -337.9230
   XY=              0.2638   XZ=              0.1513   YZ=             14.4451

 Normal termination of Gaussian 09 at Thu Sep  6 16:05:17 2018.
