 Gaussian 09, Revision D.01,
 Gaussian 09:  EM64L-G09RevD.01 24-Apr-2013

 ----------------------------------------------------------------------
 #PBEPBE/gen scf=(maxcycle=500,conver=3) NMR=GIAO Scrf=(solvent=Dichlor
 omethane)
 ----------------------------------------------------------------------

 ------------
 estrutura 85
 ------------
 Symbolic Z-matrix:
 Charge =  0 Multiplicity = 1

                         Standard orientation:
 ---------------------------------------------------------------------
 Center     Atomic      Atomic             Coordinates (Angstroms)
 Number     Number       Type             X           Y           Z
 ---------------------------------------------------------------------
      1         78           0       -0.021236   -0.428124    0.022259
      2          6           0        0.052524   -2.511932   -0.054925
      3          6           0       -0.205463   -3.380932    1.019605
      4          6           0        0.365625   -3.100469   -1.296921
      5          6           0       -0.171107   -4.772087    0.861552
      6          1           0       -0.427898   -2.978929    2.008766
      7          6           0        0.411072   -4.490800   -1.460024
      8          1           0        0.567844   -2.464922   -2.164984
      9          6           0        0.138407   -5.335754   -0.379016
     10          1           0       -0.379875   -5.416354    1.720870
     11          1           0        0.658627   -4.913106   -2.438484
     12          1           0        0.171106   -6.421685   -0.502247
     13         15           0       -2.437571   -0.712480   -0.105205
     14         15           0        0.160529    2.011100   -0.159050
     15          6           0       -3.083924   -1.080628    1.585866
     16          6           0       -4.457064   -1.317726    1.790355
     17          6           0       -2.226689   -1.046152    2.697157
     18          6           0       -4.951395   -1.545231    3.076265
     19          1           0       -5.148992   -1.314242    0.945002
     20          6           0       -2.726200   -1.265858    3.986327
     21          1           0       -1.164950   -0.833192    2.553421
     22          6           0       -4.086128   -1.522123    4.177279
     23          1           0       -6.018307   -1.733479    3.220116
     24          1           0       -2.046668   -1.232705    4.841691
     25          1           0       -4.475884   -1.695580    5.183660
     26          6           0       -2.920220   -2.123255   -1.196050
     27          6           0       -2.573992   -2.053405   -2.558377
     28          6           0       -3.576297   -3.271489   -0.727232
     29          6           0       -2.913807   -3.084073   -3.436606
     30          1           0       -2.023971   -1.192392   -2.944279
     31          6           0       -3.900589   -4.311778   -1.605557
     32          1           0       -3.829239   -3.372044    0.328313
     33          6           0       -3.581196   -4.217946   -2.961954
     34          1           0       -2.643304   -3.005791   -4.492322
     35          1           0       -4.406879   -5.200317   -1.220735
     36          1           0       -3.840783   -5.029525   -3.646120
     37          6           0       -3.613572    0.638145   -0.608282
     38          6           0       -3.794536    1.713461    0.279872
     39          6           0       -4.344766    0.625283   -1.807138
     40          6           0       -4.678312    2.750630   -0.025395
     41          1           0       -3.254884    1.739084    1.227420
     42          6           0       -5.228538    1.666443   -2.112103
     43          1           0       -4.245488   -0.201611   -2.509344
     44          6           0       -5.397338    2.732722   -1.225248
     45          1           0       -4.805833    3.575307    0.681121
     46          1           0       -5.791342    1.635374   -3.048597
     47          1           0       -6.090401    3.543309   -1.463655
     48          6           0        1.870558    2.706210   -0.357618
     49          6           0        2.354536    3.782097    0.398227
     50          6           0        2.678999    2.164490   -1.370921
     51          6           0        3.627828    4.304853    0.146664
     52          1           0        1.745341    4.215058    1.191448
     53          6           0        3.949821    2.687891   -1.620436
     54          1           0        2.316040    1.327433   -1.973900
     55          6           0        4.427515    3.761229   -0.860942
     56          1           0        3.995619    5.142461    0.745363
     57          1           0        4.569593    2.250870   -2.407109
     58          1           0        5.423003    4.169411   -1.052857
     59          6           0       -0.515064    2.909961    1.304754
     60          6           0       -1.454800    3.950639    1.234334
     61          6           0       -0.063997    2.484140    2.569732
     62          6           0       -1.929006    4.557231    2.403261
     63          1           0       -1.838521    4.286725    0.271126
     64          6           0       -0.535091    3.096838    3.733486
     65          1           0        0.673922    1.682057    2.647187
     66          6           0       -1.470602    4.134565    3.653964
     67          1           0       -2.662183    5.364634    2.330813
     68          1           0       -0.169287    2.759151    4.706482
     69          1           0       -1.841876    4.610742    4.564947
     70          6           0       -0.584004    2.747015   -1.687833
     71          6           0       -0.507278    4.130328   -1.942570
     72          6           0       -1.100653    1.906613   -2.684700
     73          6           0       -0.973583    4.656766   -3.148352
     74          1           0       -0.060452    4.803148   -1.207587
     75          6           0       -1.554658    2.432658   -3.899545
     76          1           0       -1.129581    0.828802   -2.517138
     77          6           0       -1.500322    3.808713   -4.130270
     78          1           0       -0.912335    5.733010   -3.327819
     79          1           0       -1.949565    1.761613   -4.666298
     80          1           0       -1.856374    4.221549   -5.077364
     81         50           0        2.504491   -0.788335    0.756188
     82          6           0        4.242159   -1.091849   -0.530866
     83          6           0        5.526656   -0.699616   -0.120872
     84          6           0        4.082476   -1.686592   -1.793867
     85          6           0        6.631661   -0.904361   -0.955783
     86          1           0        5.669072   -0.221803    0.852417
     87          6           0        5.187800   -1.890240   -2.630561
     88          1           0        3.093211   -2.003080   -2.137182
     89          6           0        6.463782   -1.498809   -2.212381
     90          1           0        7.627338   -0.595149   -0.625377
     91          1           0        5.049847   -2.355407   -3.611430
     92          1           0        7.327284   -1.656858   -2.864600
     93         17           0        3.393051    0.896082    2.313375
     94         17           0        2.863839   -2.622868    2.345410
 ---------------------------------------------------------------------

 SCF Done:  E(RPBE-PBE) =  -26545.2933664     A.U. after    8 cycles

      1  Pt   Isotropic =  2795.1320   Anisotropy =  2064.7933

      2  C    Isotropic =    85.7534   Anisotropy =    70.0390

      3  C    Isotropic =   129.2747   Anisotropy =   281.2890

      4  C    Isotropic =   106.1077   Anisotropy =   200.5613

      5  C    Isotropic =     8.4769   Anisotropy =    61.3510

      6  H    Isotropic =    23.6752   Anisotropy =    10.7209

      7  C    Isotropic =     7.7206   Anisotropy =    56.0094

      8  H    Isotropic =    22.8484   Anisotropy =    16.2065

      9  C    Isotropic =   -34.9774   Anisotropy =    83.3912

     10  H    Isotropic =    19.3458   Anisotropy =    12.4536

     11  H    Isotropic =    19.3368   Anisotropy =    12.1816

     12  H    Isotropic =    17.6022   Anisotropy =    13.0374

     13  P    Isotropic =   273.4340   Anisotropy =    52.3227

     14  P    Isotropic =   288.2714   Anisotropy =    66.1744

     15  C    Isotropic =    29.8088   Anisotropy =   141.4172

     16  C    Isotropic =    15.7247   Anisotropy =   138.6116

     17  C    Isotropic =    29.2094   Anisotropy =   113.6466

     18  C    Isotropic =    32.9065   Anisotropy =   186.4462

     19  H    Isotropic =    24.7624   Anisotropy =    13.2354

     20  C    Isotropic =    59.4213   Anisotropy =   189.5935

     21  H    Isotropic =    22.3258   Anisotropy =    17.3433

     22  C    Isotropic =    61.2733   Anisotropy =   269.0057

     23  H    Isotropic =    20.0500   Anisotropy =    11.8164

     24  H    Isotropic =    23.1463   Anisotropy =    10.6176

     25  H    Isotropic =    20.7131   Anisotropy =     9.7156

     26  C    Isotropic =    29.4404   Anisotropy =   267.4523

     27  C    Isotropic =    35.7145   Anisotropy =   218.0337

     28  C    Isotropic =    37.7725   Anisotropy =   207.1457

     29  C    Isotropic =    43.6778   Anisotropy =   200.8285

     30  H    Isotropic =    23.6573   Anisotropy =    12.4802

     31  C    Isotropic =    29.7949   Anisotropy =   180.3108

     32  H    Isotropic =    25.4171   Anisotropy =    13.1247

     33  C    Isotropic =    34.8739   Anisotropy =   238.9277

     34  H    Isotropic =    22.8805   Anisotropy =     8.0208

     35  H    Isotropic =    22.3428   Anisotropy =     9.6511

     36  H    Isotropic =    22.0476   Anisotropy =     7.1485

     37  C    Isotropic =   -21.4692   Anisotropy =   203.7391

     38  C    Isotropic =   -16.8203   Anisotropy =   101.7039

     39  C    Isotropic =     8.1340   Anisotropy =   134.4252

     40  C    Isotropic =    74.3428   Anisotropy =   248.7731

     41  H    Isotropic =    28.4780   Anisotropy =     9.8783

     42  C    Isotropic =    78.5980   Anisotropy =   246.6451

     43  H    Isotropic =    25.7798   Anisotropy =    13.5211

     44  C    Isotropic =    68.5444   Anisotropy =   213.1670

     45  H    Isotropic =    27.1602   Anisotropy =     7.0141

     46  H    Isotropic =    26.5804   Anisotropy =     4.3435

     47  H    Isotropic =    27.2106   Anisotropy =     2.7696

     48  C    Isotropic =   122.1668   Anisotropy =   281.5972

     49  C    Isotropic =   109.3736   Anisotropy =   283.6167

     50  C    Isotropic =   106.9971   Anisotropy =   245.7401

     51  C    Isotropic =   -44.6075   Anisotropy =   101.2847

     52  H    Isotropic =    22.8982   Anisotropy =    14.1428

     53  C    Isotropic =     0.7172   Anisotropy =    88.8231

     54  H    Isotropic =    22.4248   Anisotropy =    11.0472

     55  C    Isotropic =   -18.1780   Anisotropy =   163.8698

     56  H    Isotropic =    12.5006   Anisotropy =    21.4165

     57  H    Isotropic =    18.2355   Anisotropy =    12.4456

     58  H    Isotropic =    11.5818   Anisotropy =    21.7961

     59  C    Isotropic =    72.8164   Anisotropy =   165.9039

     60  C    Isotropic =    44.3586   Anisotropy =   165.4164

     61  C    Isotropic =    58.8627   Anisotropy =   181.8675

     62  C    Isotropic =    10.2208   Anisotropy =   118.9890

     63  H    Isotropic =    23.2564   Anisotropy =    12.3033

     64  C    Isotropic =    53.8369   Anisotropy =   178.2734

     65  H    Isotropic =    23.0194   Anisotropy =    11.9808

     66  C    Isotropic =    29.5573   Anisotropy =   215.9788

     67  H    Isotropic =    16.1399   Anisotropy =    16.0560

     68  H    Isotropic =    21.2708   Anisotropy =    11.1049

     69  H    Isotropic =    17.3062   Anisotropy =    13.8253

     70  C    Isotropic =    41.2795   Anisotropy =   185.8922

     71  C    Isotropic =    68.9458   Anisotropy =   242.6484

     72  C    Isotropic =    26.8887   Anisotropy =   185.1001

     73  C    Isotropic =    18.9166   Anisotropy =   132.3588

     74  H    Isotropic =    24.4075   Anisotropy =    14.7679

     75  C    Isotropic =    43.3679   Anisotropy =   190.6426

     76  H    Isotropic =    23.4664   Anisotropy =    10.8192

     77  C    Isotropic =    33.8599   Anisotropy =   213.8629

     78  H    Isotropic =    20.7072   Anisotropy =    10.8962

     79  H    Isotropic =    23.3120   Anisotropy =     9.2960

     80  H    Isotropic =    20.6410   Anisotropy =     9.4815

     81  Sn   Isotropic =  2100.6661   Anisotropy =   796.5692

     82  C    Isotropic =   131.1798   Anisotropy =   236.7799

     83  C    Isotropic =   114.5477   Anisotropy =   247.4953

     84  C    Isotropic =   153.5921   Anisotropy =   365.9022

     85  C    Isotropic =   -24.6024   Anisotropy =    94.7610

     86  H    Isotropic =    22.7911   Anisotropy =    16.6090

     87  C    Isotropic =    55.9256   Anisotropy =   111.6855

     88  H    Isotropic =    19.8730   Anisotropy =    17.8958

     89  C    Isotropic =   -88.3624   Anisotropy =   179.6778

     90  H    Isotropic =    26.5034   Anisotropy =     3.2305

     91  H    Isotropic =    25.4503   Anisotropy =     6.5172

     92  H    Isotropic =    27.0039   Anisotropy =     4.3598

     93  Cl   Isotropic =   859.6296   Anisotropy =   169.7544

     94  Cl   Isotropic =   837.8195   Anisotropy =   169.9753

 The electronic state is 1-A.
 Alpha  occ. eigenvalues -- ********************-427.53928-414.86991-414.86908
 Alpha  occ. eigenvalues -- -414.86690-149.63017-141.90843-141.90802-141.90709
 Alpha  occ. eigenvalues -- -100.54508-100.54282 -99.91972 -92.07847 -92.07663
 Alpha  occ. eigenvalues --  -92.07387 -79.03691 -79.03572 -79.03416 -79.03327
 Alpha  occ. eigenvalues --  -79.03294 -76.30572 -76.30386 -28.79510 -25.14241
 Alpha  occ. eigenvalues --  -25.14112 -25.13828 -20.83459 -17.69084 -17.69072
 Alpha  occ. eigenvalues --  -17.68886 -17.68799 -17.68756 -17.40339 -17.39978
 Alpha  occ. eigenvalues --  -17.39381 -11.58641 -11.58233 -11.57899 -11.57736
 Alpha  occ. eigenvalues --  -11.57661  -9.92873  -9.92503  -9.92452  -9.92328
 Alpha  occ. eigenvalues --   -9.92299  -9.91592  -9.91403  -9.91065  -9.91058
 Alpha  occ. eigenvalues --   -9.91055  -9.90972  -9.90960  -9.90919  -9.90836
 Alpha  occ. eigenvalues --   -9.90774  -9.90757  -9.90752  -9.90719  -9.90636
 Alpha  occ. eigenvalues --   -9.90624  -9.90600  -9.90577  -9.90566  -9.90556
 Alpha  occ. eigenvalues --   -9.90546  -9.90513  -9.90509  -9.90501  -9.90498
 Alpha  occ. eigenvalues --   -9.90450  -9.90421  -9.90382  -9.90322  -9.90282
 Alpha  occ. eigenvalues --   -9.90282  -9.90155  -9.90140  -9.90115  -9.89999
 Alpha  occ. eigenvalues --   -9.89864  -9.89825  -9.89643  -9.89501  -9.89416
 Alpha  occ. eigenvalues --   -9.89039  -9.88794  -9.88700  -9.88084  -9.12337
 Alpha  occ. eigenvalues --   -9.12087  -6.96099  -6.95859  -6.95554  -6.95524
 Alpha  occ. eigenvalues --   -6.95306  -6.95270  -6.33706  -6.33557  -4.56251
 Alpha  occ. eigenvalues --   -4.56241  -4.56119  -4.56092  -4.55903  -4.55724
 Alpha  occ. eigenvalues --   -4.48398  -3.22041  -3.21811  -3.21284  -3.13511
 Alpha  occ. eigenvalues --   -3.13449  -3.13080  -3.12780  -3.12685  -3.12559
 Alpha  occ. eigenvalues --   -3.12533  -2.86452  -1.81506  -1.81056  -1.78964
 Alpha  occ. eigenvalues --   -1.01162  -1.00947  -1.00532  -1.00502  -1.00390
 Alpha  occ. eigenvalues --   -0.79914  -0.79792  -0.79070  -0.79018  -0.78846
 Alpha  occ. eigenvalues --   -0.78777  -0.78038  -0.76963  -0.71709  -0.71603
 Alpha  occ. eigenvalues --   -0.70600  -0.69288  -0.69127  -0.68954  -0.68941
 Alpha  occ. eigenvalues --   -0.68911  -0.68725  -0.68591  -0.68394  -0.68304
 Alpha  occ. eigenvalues --   -0.68284  -0.68234  -0.67845  -0.67354  -0.66841
 Alpha  occ. eigenvalues --   -0.66460  -0.60730  -0.60588  -0.56231  -0.56057
 Alpha  occ. eigenvalues --   -0.55922  -0.55842  -0.55392  -0.55281  -0.54830
 Alpha  occ. eigenvalues --   -0.54798  -0.54755  -0.54638  -0.54522  -0.53775
 Alpha  occ. eigenvalues --   -0.53614  -0.52955  -0.51944  -0.51727  -0.47791
 Alpha  occ. eigenvalues --   -0.47666  -0.47572  -0.47492  -0.46846  -0.45861
 Alpha  occ. eigenvalues --   -0.45819  -0.45473  -0.42209  -0.42103  -0.42020
 Alpha  occ. eigenvalues --   -0.41943  -0.41535  -0.41468  -0.41132  -0.41056
 Alpha  occ. eigenvalues --   -0.41033  -0.40840  -0.40744  -0.40417  -0.40401
 Alpha  occ. eigenvalues --   -0.40313  -0.39600  -0.39512  -0.39422  -0.38854
 Alpha  occ. eigenvalues --   -0.38564  -0.38492  -0.38365  -0.38212  -0.38118
 Alpha  occ. eigenvalues --   -0.38012  -0.37871  -0.37470  -0.37320  -0.37023
 Alpha  occ. eigenvalues --   -0.36468  -0.36340  -0.35598  -0.34846  -0.34680
 Alpha  occ. eigenvalues --   -0.34415  -0.34356  -0.34128  -0.33924  -0.33600
 Alpha  occ. eigenvalues --   -0.33423  -0.33249  -0.33024  -0.32109  -0.31695
 Alpha  occ. eigenvalues --   -0.31439  -0.31236  -0.31182  -0.31047  -0.30933
 Alpha  occ. eigenvalues --   -0.30829  -0.30593  -0.30295  -0.30161  -0.29990
 Alpha  occ. eigenvalues --   -0.29911  -0.29804  -0.29371  -0.28487  -0.28007
 Alpha  occ. eigenvalues --   -0.27386  -0.26445  -0.25991  -0.25932  -0.25872
 Alpha  occ. eigenvalues --   -0.25565  -0.25203  -0.25091  -0.24869  -0.24832
 Alpha  occ. eigenvalues --   -0.24613  -0.24463  -0.24378  -0.24159  -0.23941
 Alpha  occ. eigenvalues --   -0.23709  -0.23514  -0.23454  -0.23190  -0.23101
 Alpha  occ. eigenvalues --   -0.22150  -0.21956  -0.21608  -0.20907  -0.19813
 Alpha virt. eigenvalues --   -0.08732  -0.07769  -0.07412  -0.06926  -0.06837
 Alpha virt. eigenvalues --   -0.06506  -0.06135  -0.05945  -0.05853  -0.05570
 Alpha virt. eigenvalues --   -0.05501  -0.05194  -0.04800  -0.04699  -0.04494

 Mulliken charges:
               1
     1  Pt   0.357463
     2  C    0.134103
     3  C   -0.194690
     4  C    0.133013
     5  C   -0.085095
     6  H    0.049298
     7  C    0.001566
     8  H    0.028210
     9  C   -0.625364
    10  H    0.129285
    11  H    0.119929
    12  H    0.141366
    13  P    1.167317
    14  P    1.191813
    15  C   -1.147518
    16  C    0.442841
    17  C    0.474217
    18  C    0.032016
    19  H    0.090864
    20  C   -0.217317
    21  H    0.057261
    22  C   -0.647567
    23  H    0.141650
    24  H    0.136455
    25  H    0.154339
    26  C   -0.846523
    27  C    0.661281
    28  C    0.114105
    29  C   -0.007948
    30  H    0.042038
    31  C   -0.162860
    32  H    0.091619
    33  C   -0.468407
    34  H    0.127490
    35  H    0.132473
    36  H    0.147971
    37  C   -1.112870
    38  C    0.487401
    39  C    0.317061
    40  C   -0.024904
    41  H    0.057695
    42  C   -0.171996
    43  H    0.069597
    44  C   -0.475800
    45  H    0.125745
    46  H    0.134577
    47  H    0.147325
    48  C   -1.236293
    49  C    0.375457
    50  C    0.452222
    51  C   -0.131491
    52  H    0.081845
    53  C   -0.006523
    54  H    0.083417
    55  C   -0.505417
    56  H    0.141608
    57  H    0.124327
    58  H    0.142786
    59  C   -0.786683
    60  C    0.402523
    61  C    0.398814
    62  C   -0.166552
    63  H    0.062168
    64  C   -0.096622
    65  H    0.063882
    66  C   -0.586012
    67  H    0.133218
    68  H    0.140143
    69  H    0.148182
    70  C   -0.883912
    71  C    0.250631
    72  C    0.398356
    73  C    0.068656
    74  H    0.092053
    75  C   -0.257669
    76  H    0.058159
    77  C   -0.593841
    78  H    0.144224
    79  H    0.124678
    80  H    0.149437
    81  Sn   0.291231
    82  C   -0.068565
    83  C    0.133326
    84  C   -0.095776
    85  C   -0.147738
    86  H    0.125831
    87  C   -0.084648
    88  H    0.110661
    89  C   -0.502052
    90  H    0.155689
    91  H    0.156736
    92  H    0.157015
    93  Cl  -0.248581
    94  Cl  -0.219429
 Sum of Mulliken charges =   0.00000

 Dipole moment (field-independent basis, Debye):
    X=            -12.2571    Y=              6.8042    Z=             -7.1397  Tot=             15.7324
 Quadrupole moment (field-independent basis, Debye-Ang):
   XX=           -367.8409   YY=           -357.0705   ZZ=           -354.8522
   XY=             14.5622   XZ=            -26.7796   YZ=             14.0475

 Normal termination of Gaussian 09 at Fri Dec  6 05:15:52 2019.
