 Gaussian 09, Revision D.01,
 Gaussian 09:  EM64L-G09RevD.01 24-Apr-2013

 ----------------------------------------------------------------------
 #PBEPBE/gen scf=(maxcycle=500,conver=4) NMR=GIAO Scrf=(solvent=Dichlor
 omethane)
 ----------------------------------------------------------------------

 ------------
 estrutura 82
 ------------
 Symbolic Z-matrix:
 Charge =  0 Multiplicity = 1

                         Standard orientation:
 ---------------------------------------------------------------------
 Center     Atomic      Atomic             Coordinates (Angstroms)
 Number     Number       Type             X           Y           Z
 ---------------------------------------------------------------------
      1         78           0       -0.354190   -0.036133   -0.123987
      2         15           0       -0.187391    2.369861   -0.200935
      3         15           0       -0.624571   -2.413693   -0.027168
      4          6           0       -0.138980    3.002780    1.539568
      5          1           0        0.632583    2.394566    2.038419
      6          1           0       -1.103155    2.700383    1.981281
      7          6           0        0.131323    4.492777    1.771850
      8          1           0       -0.582255    5.141909    1.241137
      9          1           0        0.047522    4.720484    2.846844
     10          1           0        1.147385    4.774412    1.457975
     11          6           0        1.388613    2.936043   -1.023499
     12          1           0        1.586954    2.217378   -1.833515
     13          6           0       -1.528006    3.314448   -1.079552
     14          1           0       -1.075877    4.261554   -1.408975
     15          1           0       -1.751114    2.739301   -1.992121
     16          6           0       -2.814960    3.610669   -0.304615
     17          1           0       -3.523368    4.134450   -0.966931
     18          1           0       -3.306704    2.698724    0.057381
     19          1           0       -2.629664    4.268243    0.558893
     20          6           0        0.411002   -3.337458   -1.253212
     21          1           0        0.209864   -4.412719   -1.117569
     22          1           0        1.459727   -3.182783   -0.950591
     23          6           0        0.188836   -2.914186   -2.707007
     24          1           0       -0.831762   -3.139179   -3.053365
     25          1           0        0.358770   -1.834389   -2.840013
     26          1           0        0.888204   -3.449488   -3.368042
     27          6           0       -2.354930   -3.019804   -0.312478
     28          1           0       -2.968592   -2.558825    0.477942
     29          1           0       -2.695946   -2.552320   -1.249663
     30          6           0       -2.557887   -4.536016   -0.352007
     31          1           0       -3.630993   -4.759762   -0.464453
     32          1           0       -2.037326   -5.005669   -1.200176
     33          1           0       -2.218554   -5.031168    0.571753
     34          6           0       -0.125281   -3.132884    1.606405
     35          1           0       -0.383977   -4.204605    1.591900
     36          1           0        0.974648   -3.074559    1.642479
     37          6           0       -0.739595   -2.434235    2.822772
     38          1           0       -0.436027   -2.949441    3.748479
     39          1           0       -0.399642   -1.387983    2.892261
     40          1           0       -1.841689   -2.430502    2.792657
     41         50           0        2.359066   -0.274339    0.135022
     42         17           0        3.777441    0.140163   -1.824961
     43         17           0        3.447739    1.242930    1.746223
     44         17           0        3.496647   -2.330212    0.869354
     45          6           0        1.487277    4.363938   -1.569976
     46          1           0        2.512018    4.537441   -1.936014
     47          1           0        0.808152    4.530794   -2.419672
     48          1           0        1.274829    5.128531   -0.808352
     49          1           0        2.171707    2.765341   -0.266721
     50          6           0       -2.394531    0.141250   -0.302156
     51          6           0       -3.215120    0.182269    0.836571
     52          6           0       -3.006457    0.189638   -1.567270
     53          6           0       -4.618328    0.266120    0.744254
     54          1           0       -2.763947    0.147434    1.833728
     55          6           0       -4.399248    0.272785   -1.676572
     56          1           0       -2.400795    0.153070   -2.477542
     57          6           0       -5.201793    0.308603   -0.531203
     58          1           0       -4.863383    0.305415   -2.666899
     59          1           0       -6.289694    0.369495   -0.628293
     60          6           0       -5.463018    0.330050    1.995303
     61          1           0       -5.354923    1.306605    2.498471
     62          1           0       -5.163432   -0.439779    2.725089
     63          1           0       -6.531185    0.190758    1.770110
 ---------------------------------------------------------------------

 SCF Done:  E(RPBE-PBE) =  -25899.3689173     A.U. after   11 cycles

      1  Pt   Isotropic =  3002.3091   Anisotropy =  1152.7211

      2  P    Isotropic =   292.8669   Anisotropy =    31.0737

      3  P    Isotropic =   275.6521   Anisotropy =    52.0008

      4  C    Isotropic =   156.5900   Anisotropy =    33.8258

      5  H    Isotropic =    28.8829   Anisotropy =     7.1105

      6  H    Isotropic =    29.2718   Anisotropy =     5.5713

      7  C    Isotropic =   171.3760   Anisotropy =    20.9603

      8  H    Isotropic =    30.4230   Anisotropy =     8.6626

      9  H    Isotropic =    30.0400   Anisotropy =    13.1962

     10  H    Isotropic =    30.1001   Anisotropy =     7.9297

     11  C    Isotropic =   147.4262   Anisotropy =    31.8517

     12  H    Isotropic =    28.7509   Anisotropy =     8.3668

     13  C    Isotropic =   164.7128   Anisotropy =    21.2296

     14  H    Isotropic =    29.1364   Anisotropy =     9.4868

     15  H    Isotropic =    29.8109   Anisotropy =     5.8911

     16  C    Isotropic =   175.2984   Anisotropy =    19.8118

     17  H    Isotropic =    30.9292   Anisotropy =    12.1406

     18  H    Isotropic =    32.1537   Anisotropy =    14.4875

     19  H    Isotropic =    31.0414   Anisotropy =     8.7599

     20  C    Isotropic =   155.9023   Anisotropy =    20.2659

     21  H    Isotropic =    29.3453   Anisotropy =     9.4104

     22  H    Isotropic =    29.1661   Anisotropy =     9.5339

     23  C    Isotropic =   172.0947   Anisotropy =    20.2730

     24  H    Isotropic =    30.5304   Anisotropy =     9.4774

     25  H    Isotropic =    30.2386   Anisotropy =     5.8175

     26  H    Isotropic =    30.1098   Anisotropy =    13.0982

     27  C    Isotropic =   163.9737   Anisotropy =    28.3756

     28  H    Isotropic =    30.3307   Anisotropy =     9.5356

     29  H    Isotropic =    30.2285   Anisotropy =     8.4054

     30  C    Isotropic =   177.2865   Anisotropy =    18.5351

     31  H    Isotropic =    30.5519   Anisotropy =    12.7821

     32  H    Isotropic =    30.7518   Anisotropy =    10.1260

     33  H    Isotropic =    30.7217   Anisotropy =     9.7818

     34  C    Isotropic =   157.3397   Anisotropy =    22.0621

     35  H    Isotropic =    29.3200   Anisotropy =     9.9395

     36  H    Isotropic =    28.7639   Anisotropy =    10.3674

     37  C    Isotropic =   171.2584   Anisotropy =    18.5599

     38  H    Isotropic =    30.1125   Anisotropy =    13.2958

     39  H    Isotropic =    30.1836   Anisotropy =     5.4633

     40  H    Isotropic =    30.4280   Anisotropy =     8.5799

     41  Sn   Isotropic =  2155.7633   Anisotropy =   831.5178

     42  Cl   Isotropic =   754.7936   Anisotropy =   323.6869

     43  Cl   Isotropic =   749.6382   Anisotropy =   315.4058

     44  Cl   Isotropic =   750.9761   Anisotropy =   296.1397

     45  C    Isotropic =   170.6769   Anisotropy =    21.4110

     46  H    Isotropic =    29.9738   Anisotropy =    12.1073

     47  H    Isotropic =    30.1713   Anisotropy =     9.2698

     48  H    Isotropic =    30.3573   Anisotropy =     8.3588

     49  H    Isotropic =    28.4033   Anisotropy =     9.7490

     50  C    Isotropic =    -1.8269   Anisotropy =   142.1464

     51  C    Isotropic =    37.1158   Anisotropy =   140.1789

     52  C    Isotropic =    54.4456   Anisotropy =   159.5140

     53  C    Isotropic =    50.2999   Anisotropy =   209.1042

     54  H    Isotropic =    23.7794   Anisotropy =    15.5046

     55  C    Isotropic =    56.7093   Anisotropy =   194.3393

     56  H    Isotropic =    23.6384   Anisotropy =    13.4649

     57  C    Isotropic =    47.1275   Anisotropy =   124.3214

     58  H    Isotropic =    23.7518   Anisotropy =     5.7261

     59  H    Isotropic =    24.6890   Anisotropy =     3.1937

     60  C    Isotropic =   157.5768   Anisotropy =    50.2549

     61  H    Isotropic =    28.8574   Anisotropy =     7.8302

     62  H    Isotropic =    28.9408   Anisotropy =     6.5759

     63  H    Isotropic =    30.0579   Anisotropy =     8.2155

 The electronic state is 1-A.
 Alpha  occ. eigenvalues -- ********************-427.53610-414.86659-414.86619
 Alpha  occ. eigenvalues -- -414.86346-149.64811-141.92620-141.92616-141.92544
 Alpha  occ. eigenvalues -- -100.55344-100.55220-100.55205 -99.91635 -92.07496
 Alpha  occ. eigenvalues --  -92.07367 -92.07023 -79.03375 -79.03254 -79.03062
 Alpha  occ. eigenvalues --  -79.02997 -79.02954 -76.29732 -76.29526 -28.81224
 Alpha  occ. eigenvalues --  -25.15857 -25.15849 -25.15620 -20.83095 -17.70747
 Alpha  occ. eigenvalues --  -17.70747 -17.70592 -17.70588 -17.70543 -17.39940
 Alpha  occ. eigenvalues --  -17.39700 -17.38963 -11.58312 -11.57887 -11.57492
 Alpha  occ. eigenvalues --  -11.57370 -11.57287  -9.90607  -9.90597  -9.90579
 Alpha  occ. eigenvalues --   -9.90495  -9.90453  -9.90445  -9.90297  -9.90170
 Alpha  occ. eigenvalues --   -9.89405  -9.89014  -9.89008  -9.88932  -9.88924
 Alpha  occ. eigenvalues --   -9.88900  -9.88790  -9.88770  -9.88618  -9.88583
 Alpha  occ. eigenvalues --   -9.88506  -9.13207  -9.13078  -9.13066  -6.96960
 Alpha  occ. eigenvalues --   -6.96825  -6.96823  -6.96414  -6.96403  -6.96293
 Alpha  occ. eigenvalues --   -6.96274  -6.96274  -6.96258  -6.32731  -6.32572
 Alpha  occ. eigenvalues --   -4.55266  -4.55261  -4.55099  -4.55088  -4.54982
 Alpha  occ. eigenvalues --   -4.54835  -4.49964  -3.23416  -3.23388  -3.22983
 Alpha  occ. eigenvalues --   -3.13173  -3.13134  -3.12696  -3.12395  -3.12281
 Alpha  occ. eigenvalues --   -3.12189  -3.12155  -2.86042  -1.81050  -1.80876
 Alpha  occ. eigenvalues --   -1.78376  -1.02448  -1.02443  -1.02078  -1.02039
 Alpha  occ. eigenvalues --   -1.01943  -0.77676  -0.73364  -0.73230  -0.71846
 Alpha  occ. eigenvalues --   -0.70335  -0.70278  -0.69720  -0.69499  -0.69241
 Alpha  occ. eigenvalues --   -0.69004  -0.68973  -0.66741  -0.61590  -0.61256
 Alpha  occ. eigenvalues --   -0.60962  -0.57103  -0.56668  -0.56439  -0.55512
 Alpha  occ. eigenvalues --   -0.53765  -0.51731  -0.48938  -0.48167  -0.45198
 Alpha  occ. eigenvalues --   -0.43009  -0.42415  -0.42199  -0.41878  -0.41421
 Alpha  occ. eigenvalues --   -0.41057  -0.40805  -0.40307  -0.39012  -0.38479
 Alpha  occ. eigenvalues --   -0.38196  -0.37801  -0.37600  -0.37244  -0.37149
 Alpha  occ. eigenvalues --   -0.36651  -0.36433  -0.35994  -0.35565  -0.35163
 Alpha  occ. eigenvalues --   -0.34739  -0.34373  -0.33804  -0.33751  -0.33356
 Alpha  occ. eigenvalues --   -0.33097  -0.32676  -0.32207  -0.32019  -0.31852
 Alpha  occ. eigenvalues --   -0.31778  -0.31650  -0.31253  -0.30930  -0.30847
 Alpha  occ. eigenvalues --   -0.30119  -0.29671  -0.29644  -0.28892  -0.28555
 Alpha  occ. eigenvalues --   -0.28193  -0.27884  -0.27325  -0.27058  -0.26995
 Alpha  occ. eigenvalues --   -0.26081  -0.25658  -0.25633  -0.25328  -0.25069
 Alpha  occ. eigenvalues --   -0.23442  -0.22269  -0.21893  -0.20743  -0.19751
 Alpha virt. eigenvalues --   -0.07918  -0.06271  -0.04608  -0.04404  -0.03549
 Alpha virt. eigenvalues --   -0.02806  -0.02223  -0.01667  -0.01389  -0.00572
 Alpha virt. eigenvalues --   -0.00289  -0.00107   0.00151   0.00734   0.01377

 Mulliken charges:
               1
     1  Pt   0.316768
     2  P    0.053609
     3  P    0.237013
     4  C   -0.369348
     5  H    0.086379
     6  H    0.092837
     7  C   -0.178969
     8  H    0.108819
     9  H    0.137248
    10  H    0.113296
    11  C   -0.327677
    12  H    0.095066
    13  C   -0.280242
    14  H    0.106434
    15  H    0.081020
    16  C   -0.112993
    17  H    0.117719
    18  H    0.054750
    19  H    0.092715
    20  C   -0.404487
    21  H    0.110548
    22  H    0.081047
    23  C   -0.113296
    24  H    0.106543
    25  H    0.072111
    26  H    0.133048
    27  C   -0.406523
    28  H    0.076958
    29  H    0.081386
    30  C   -0.183006
    31  H    0.136575
    32  H    0.113758
    33  H    0.113558
    34  C   -0.436919
    35  H    0.102774
    36  H    0.087553
    37  C   -0.096477
    38  H    0.135769
    39  H    0.073187
    40  H    0.093245
    41  Sn   0.303811
    42  Cl  -0.285878
    43  Cl  -0.293654
    44  Cl  -0.232782
    45  C   -0.167203
    46  H    0.132315
    47  H    0.115195
    48  H    0.111045
    49  H    0.077723
    50  C    0.294726
    51  C   -0.376430
    52  C    0.055198
    53  C    0.389664
    54  H    0.020624
    55  C    0.030075
    56  H    0.057191
    57  C   -0.916576
    58  H    0.128802
    59  H    0.126212
    60  C   -0.277988
    61  H    0.136603
    62  H    0.132521
    63  H    0.137006
 Sum of Mulliken charges =   0.00000

 Dipole moment (field-independent basis, Debye):
    X=            -13.6741    Y=              1.0895    Z=             -0.7235  Tot=             13.7365
 Quadrupole moment (field-independent basis, Debye-Ang):
   XX=           -282.7307   YY=           -214.2858   ZZ=           -240.6826
   XY=              8.1081   XZ=             -5.7274   YZ=             -0.5977

 Normal termination of Gaussian 09 at Mon Aug 26 09:32:13 2019.
