 Gaussian 09, Revision A.02,
 Gaussian 09:  EM64L-G09RevA.02 11-Jun-2009

 ----------------------------------------------------------------------
 #PBEPBE/gen scf=(maxcycle=500,conver=4) NMR=GIAO Scrf=(solvent=Dichlor
 omethane)
 ----------------------------------------------------------------------

 ------------
 estrutura 41
 ------------
 Symbolic Z-matrix:
 Charge = -2 Multiplicity = 1

                         Standard orientation:
 ---------------------------------------------------------------------
 Center     Atomic      Atomic             Coordinates (Angstroms)
 Number     Number       Type             X           Y           Z
 ---------------------------------------------------------------------
      1         78           0        0.001102    0.000330   -0.000795
      2         50           0        2.047292    1.684887   -0.004883
      3         50           0       -2.044963   -1.683871   -0.000924
      4         50           0       -1.695795    2.038666   -0.004389
      5         50           0        1.693538   -2.040056    0.009552
      6         17           0       -1.860066   -4.091471    0.058884
      7         17           0       -3.486471   -1.563778   -1.942418
      8         17           0       -3.551828   -1.486390    1.885257
      9         17           0       -4.102691    1.759159    0.046224
     10         17           0       -1.654525    3.587848   -1.870364
     11         17           0       -1.487547    3.481990    1.941147
     12         17           0        1.647141   -3.576686    1.879192
     13         17           0        1.488269   -3.495757   -1.914918
     14         17           0        4.095238   -1.766185   -0.043341
     15         17           0        3.543895    1.492003   -1.901251
     16         17           0        3.504880    1.561145    1.925648
     17         17           0        1.858437    4.097707   -0.058520
 ---------------------------------------------------------------------

 SCF Done:  E(RPBE-PBE) =  -46551.5125925     A.U. after    9 cycles

  1  Pt   Isotropic =  4188.4252   Anisotropy =    69.8937

  2  Sn   Isotropic =  2085.5731   Anisotropy =   781.7469

  3  Sn   Isotropic =  2085.2342   Anisotropy =   780.0852

  4  Sn   Isotropic =  2084.7984   Anisotropy =   780.8485

  5  Sn   Isotropic =  2085.2430   Anisotropy =   778.4139

  6  Cl   Isotropic =   702.2101   Anisotropy =   354.0163

  7  Cl   Isotropic =   727.1449   Anisotropy =   352.5248

  8  Cl   Isotropic =   720.3905   Anisotropy =   348.9999

  9  Cl   Isotropic =   687.8605   Anisotropy =   357.7422

 10  Cl   Isotropic =   727.8003   Anisotropy =   357.0141

 11  Cl   Isotropic =   722.8046   Anisotropy =   358.8005

 12  Cl   Isotropic =   731.3980   Anisotropy =   351.7715

 13  Cl   Isotropic =   726.7163   Anisotropy =   350.1193

 14  Cl   Isotropic =   691.9739   Anisotropy =   352.4117

 15  Cl   Isotropic =   720.8720   Anisotropy =   350.3652

 16  Cl   Isotropic =   725.9356   Anisotropy =   353.6671

 17  Cl   Isotropic =   700.0288   Anisotropy =   359.3604

 The electronic state is 1-A.
 Alpha  occ. eigenvalues -- **************************************************
 Alpha  occ. eigenvalues -- -427.53328-414.86331-414.86329-414.86060-149.65003
 Alpha  occ. eigenvalues -- -149.64957-149.64952-149.64943-141.92813-141.92810
 Alpha  occ. eigenvalues -- -141.92767-141.92764-141.92763-141.92758-141.92755
 Alpha  occ. eigenvalues -- -141.92749-141.92746-141.92700-141.92694-141.92686
 Alpha  occ. eigenvalues -- -100.54633-100.54620-100.54584-100.54582-100.54576
 Alpha  occ. eigenvalues -- -100.54538-100.54499-100.54496-100.54440-100.54410
 Alpha  occ. eigenvalues -- -100.54390-100.54365 -99.91379 -92.07187 -92.07183
 Alpha  occ. eigenvalues --  -92.06733 -79.03094 -79.03027 -79.02764 -79.02762
 Alpha  occ. eigenvalues --  -79.02667 -28.81392 -28.81351 -28.81343 -28.81336
 Alpha  occ. eigenvalues --  -25.16017 -25.16013 -25.15976 -25.15972 -25.15972
 Alpha  occ. eigenvalues --  -25.15965 -25.15961 -25.15954 -25.15805 -25.15764
 Alpha  occ. eigenvalues --  -25.15755 -25.15749 -20.82833 -17.70909 -17.70909
 Alpha  occ. eigenvalues --  -17.70868 -17.70867 -17.70861 -17.70860 -17.70854
 Alpha  occ. eigenvalues --  -17.70853 -17.70768 -17.70768 -17.70727 -17.70726
 Alpha  occ. eigenvalues --  -17.70724 -17.70721 -17.70716 -17.70714 -17.70709
 Alpha  occ. eigenvalues --  -17.70683 -17.70675 -17.70668 -17.39581 -17.39573
 Alpha  occ. eigenvalues --  -17.38649 -11.57974 -11.57731 -11.57178 -11.57173
 Alpha  occ. eigenvalues --  -11.56962  -9.12501  -9.12484  -9.12454  -9.12451
 Alpha  occ. eigenvalues --   -9.12445  -9.12400  -9.12369  -9.12366  -9.12320
 Alpha  occ. eigenvalues --   -9.12285  -9.12269  -9.12239  -6.96305  -6.96288
 Alpha  occ. eigenvalues --   -6.96254  -6.96249  -6.96246  -6.96199  -6.96170
 Alpha  occ. eigenvalues --   -6.96168  -6.96123  -6.96088  -6.96072  -6.96043
 Alpha  occ. eigenvalues --   -6.95689  -6.95673  -6.95664  -6.95646  -6.95644
 Alpha  occ. eigenvalues --   -6.95641  -6.95635  -6.95618  -6.95618  -6.95610
 Alpha  occ. eigenvalues --   -6.95590  -6.95568  -6.95560  -6.95558  -6.95530
 Alpha  occ. eigenvalues --   -6.95526  -6.95496  -6.95492  -6.95462  -6.95458
 Alpha  occ. eigenvalues --   -6.95449  -6.95438  -6.95420  -6.95408  -4.50105
 Alpha  occ. eigenvalues --   -4.50074  -4.50063  -4.50060  -3.23528  -3.23514
 Alpha  occ. eigenvalues --   -3.23499  -3.23494  -3.23492  -3.23486  -3.23468
 Alpha  occ. eigenvalues --   -3.23465  -3.23174  -3.23143  -3.23132  -3.23129
 Alpha  occ. eigenvalues --   -3.12888  -3.12888  -3.12383  -3.12213  -3.11960
 Alpha  occ. eigenvalues --   -3.11954  -3.11850  -2.85812  -1.80761  -1.80745
 Alpha  occ. eigenvalues --   -1.78197  -1.02577  -1.02566  -1.02562  -1.02549
 Alpha  occ. eigenvalues --   -1.02548  -1.02544  -1.02536  -1.02530  -1.02247
 Alpha  occ. eigenvalues --   -1.02205  -1.02187  -1.02171  -1.02158  -1.02153
 Alpha  occ. eigenvalues --   -1.02142  -1.02128  -1.02123  -1.02121  -1.02088
 Alpha  occ. eigenvalues --   -1.02066  -0.71462  -0.71321  -0.71282  -0.71128
 Alpha  occ. eigenvalues --   -0.69718  -0.69681  -0.69670  -0.69655  -0.69615
 Alpha  occ. eigenvalues --   -0.69465  -0.69409  -0.69286  -0.42836  -0.40928
 Alpha  occ. eigenvalues --   -0.40893  -0.40871  -0.32900  -0.32549  -0.32135
 Alpha  occ. eigenvalues --   -0.31777  -0.31737  -0.31684  -0.31570  -0.31499
 Alpha  occ. eigenvalues --   -0.31384  -0.30495  -0.28257  -0.28244  -0.28131
 Alpha  occ. eigenvalues --   -0.27231  -0.27152  -0.26947  -0.26857  -0.26789
 Alpha  occ. eigenvalues --   -0.26686  -0.26629  -0.26379  -0.26095  -0.26074
 Alpha  occ. eigenvalues --   -0.26062  -0.25876  -0.25550  -0.25346  -0.25325
 Alpha  occ. eigenvalues --   -0.25249  -0.25228  -0.25225  -0.24622  -0.24531
 Alpha  occ. eigenvalues --   -0.24480  -0.24409  -0.23995  -0.23959  -0.21507
 Alpha  occ. eigenvalues --   -0.21372  -0.21311
 Alpha virt. eigenvalues --   -0.11398  -0.07883  -0.05553  -0.05039  -0.04243
 Alpha virt. eigenvalues --   -0.04141  -0.01621  -0.01468  -0.00718  -0.00690
 Alpha virt. eigenvalues --   -0.00514   0.00350   0.01700   0.01893   0.01908

 Mulliken atomic charges:
              1
     1  Pt  -0.325114
     2  Sn   0.189974
     3  Sn   0.185776
     4  Sn   0.201094
     5  Sn   0.191751
     6  Cl  -0.174957
     7  Cl  -0.210843
     8  Cl  -0.216351
     9  Cl  -0.188608
    10  Cl  -0.209849
    11  Cl  -0.224893
    12  Cl  -0.206531
    13  Cl  -0.217577
    14  Cl  -0.184183
    15  Cl  -0.217382
    16  Cl  -0.212087
    17  Cl  -0.180219
 Sum of Mulliken atomic charges =  -2.00000

 Dipole moment (field-independent basis, Debye):
    X=              0.0294    Y=             -0.1274    Z=             -0.0259  Tot=              0.1333
 Quadrupole moment (field-independent basis, Debye-Ang):
   XX=           -404.0151   YY=           -403.4501   ZZ=           -329.0191
   XY=             -0.1244   XZ=              0.3815   YZ=             -0.3288

 Normal termination of Gaussian 09 at Mon Jun 17 18:38:08 2019.
