 Gaussian 09, Revision D.01,
 Gaussian 09:  EM64L-G09RevD.01 24-Apr-2013

 ----------------------------------------------------------------------
 #PBEPBE/gen scf=(maxcycle=500,conver=3) NMR=GIAO Scrf=(solvent=Dichlor
 omethane)
 ----------------------------------------------------------------------

 -------------
 estrutura 112
 -------------
 Symbolic Z-matrix:
 Charge =  0 Multiplicity = 1

                         Standard orientation:
 ---------------------------------------------------------------------
 Center     Atomic      Atomic             Coordinates (Angstroms)
 Number     Number       Type             X           Y           Z
 ---------------------------------------------------------------------
      1         78           0        0.283589    0.710321   -0.054410
      2         15           0        2.654099    0.235877    0.032474
      3          6           0        3.389329   -1.464788    0.026693
      4          6           0        4.109467   -1.991925    1.110286
      5          6           0        3.283663   -2.220419   -1.153561
      6          6           0        4.707033   -3.252990    1.013920
      7          1           0        4.216427   -1.424019    2.034486
      8          6           0        3.876008   -3.481301   -1.243921
      9          1           0        2.735148   -1.828204   -2.011598
     10          6           0        4.590194   -4.001884   -0.159783
     11          1           0        5.266609   -3.648694    1.865187
     12          1           0        3.776633   -4.058310   -2.166436
     13          1           0        5.056096   -4.987908   -0.231340
     14          6           0        3.267790    0.973104    1.605517
     15          6           0        4.255504    1.967051    1.663400
     16          6           0        2.671049    0.528652    2.800114
     17          6           0        4.649858    2.496683    2.896888
     18          1           0        4.713173    2.346584    0.749426
     19          6           0        3.071545    1.056781    4.029831
     20          1           0        1.889064   -0.234909    2.772522
     21          6           0        4.063008    2.042814    4.081160
     22          1           0        5.417451    3.273914    2.927354
     23          1           0        2.602510    0.699622    4.949971
     24          1           0        4.372596    2.460204    5.042524
     25          6           0        3.587593    0.969563   -1.380407
     26          6           0        4.991590    0.873616   -1.418024
     27          6           0        2.913596    1.535921   -2.473084
     28          6           0        5.704864    1.366819   -2.512710
     29          1           0        5.535373    0.402124   -0.596586
     30          6           0        3.630115    2.014017   -3.575348
     31          1           0        1.825640    1.604503   -2.461971
     32          6           0        5.025169    1.938596   -3.594153
     33          1           0        6.795170    1.294756   -2.524395
     34          1           0        3.091618    2.448416   -4.421130
     35          1           0        5.583877    2.317201   -4.453752
     36         50           0       -0.565643   -1.787710   -0.052409
     37         15           0       -1.988310    1.453479   -0.048879
     38          6           0       -2.288830    3.268655    0.133520
     39          6           0       -2.181386    4.100119   -0.995435
     40          6           0       -2.603168    3.840714    1.375383
     41          6           0       -2.395772    5.474741   -0.883096
     42          1           0       -1.933453    3.676997   -1.970899
     43          6           0       -2.813563    5.219773    1.484500
     44          1           0       -2.691586    3.217419    2.266193
     45          6           0       -2.711976    6.039220    0.357713
     46          1           0       -2.312176    6.108094   -1.769702
     47          1           0       -3.061827    5.650633    2.457568
     48          1           0       -2.879482    7.115679    0.444222
     49          6           0       -2.890787    1.083171   -1.612630
     50          6           0       -4.205025    1.546061   -1.822248
     51          6           0       -2.238951    0.400650   -2.652691
     52          6           0       -4.861410    1.288429   -3.027065
     53          1           0       -4.715843    2.129391   -1.054220
     54          6           0       -2.896649    0.150978   -3.862468
     55          1           0       -1.204091    0.075858   -2.529509
     56          6           0       -4.210557    0.586205   -4.048491
     57          1           0       -5.883243    1.647149   -3.172434
     58          1           0       -2.373282   -0.382624   -4.659198
     59          1           0       -4.725237    0.390960   -4.992462
     60          6           0       -2.902173    0.736774    1.386183
     61          6           0       -4.267181    0.409652    1.359330
     62          6           0       -2.187439    0.587227    2.589645
     63          6           0       -4.905921   -0.044072    2.516667
     64          1           0       -4.841797    0.488949    0.436959
     65          6           0       -2.832163    0.139783    3.746452
     66          1           0       -1.120418    0.822669    2.625695
     67          6           0       -4.194111   -0.173469    3.712946
     68          1           0       -5.966883   -0.301999    2.478811
     69          1           0       -2.264607    0.033430    4.674008
     70          1           0       -4.698360   -0.526601    4.615819
     71          6           0       -2.572144   -2.635176    0.183553
     72          6           0       -3.445152   -2.706241   -0.914257
     73          6           0       -2.989351   -3.151457    1.419785
     74          6           0       -4.715101   -3.278514   -0.775398
     75          1           0       -3.141164   -2.329959   -1.893663
     76          6           0       -4.258137   -3.727293    1.556603
     77          1           0       -2.322489   -3.122437    2.284633
     78          6           0       -5.123897   -3.790501    0.460489
     79          1           0       -5.382933   -3.330277   -1.639676
     80          1           0       -4.567733   -4.130411    2.524722
     81          1           0       -6.113523   -4.242699    0.567176
     82         35           0        1.073970    3.175659    0.048536
     83         35           0       -0.007809   -2.991398   -2.309650
     84         35           0        0.617238   -3.193113    1.789896
 ---------------------------------------------------------------------

 SCF Done:  E(RPBE-PBE) =  -33097.6661414     A.U. after    8 cycles

      1  Pt   Isotropic =  3359.9381   Anisotropy =  1318.9641

      2  P    Isotropic =   273.1097   Anisotropy =    87.4417

      3  C    Isotropic =   136.2253   Anisotropy =   173.0797

      4  C    Isotropic =   127.7051   Anisotropy =   316.5278

      5  C    Isotropic =   113.0855   Anisotropy =   270.8150

      6  C    Isotropic =    -1.4579   Anisotropy =    56.0393

      7  H    Isotropic =    23.6813   Anisotropy =    15.5284

      8  C    Isotropic =     4.6872   Anisotropy =    72.1079

      9  H    Isotropic =    22.5445   Anisotropy =    12.1527

     10  C    Isotropic =   -11.4112   Anisotropy =    68.8801

     11  H    Isotropic =    17.6223   Anisotropy =    16.7336

     12  H    Isotropic =    18.6026   Anisotropy =    16.2310

     13  H    Isotropic =    15.2653   Anisotropy =    17.7686

     14  C    Isotropic =    82.1108   Anisotropy =   143.3119

     15  C    Isotropic =   113.1942   Anisotropy =   273.2415

     16  C    Isotropic =    63.8817   Anisotropy =   196.0537

     17  C    Isotropic =    11.4504   Anisotropy =    87.7729

     18  H    Isotropic =    23.7172   Anisotropy =    11.0100

     19  C    Isotropic =    28.2632   Anisotropy =   137.5323

     20  H    Isotropic =    23.0301   Anisotropy =    11.9197

     21  C    Isotropic =     8.4879   Anisotropy =   139.3503

     22  H    Isotropic =    19.1956   Anisotropy =    12.3587

     23  H    Isotropic =    20.0555   Anisotropy =    12.2755

     24  H    Isotropic =    17.4694   Anisotropy =    13.0098

     25  C    Isotropic =    91.2908   Anisotropy =    92.1789

     26  C    Isotropic =   155.0134   Anisotropy =   370.5977

     27  C    Isotropic =    80.5190   Anisotropy =   303.2399

     28  C    Isotropic =    -7.2437   Anisotropy =    72.0103

     29  H    Isotropic =    22.9218   Anisotropy =    15.9990

     30  C    Isotropic =     3.7428   Anisotropy =    93.4784

     31  H    Isotropic =    21.6336   Anisotropy =    14.2550

     32  C    Isotropic =     4.1740   Anisotropy =   135.1550

     33  H    Isotropic =    18.6080   Anisotropy =    13.6932

     34  H    Isotropic =    18.9438   Anisotropy =    13.9055

     35  H    Isotropic =    15.4274   Anisotropy =    15.9608

     36  Sn   Isotropic =  1974.8486   Anisotropy =   526.3518

     37  P    Isotropic =   258.1278   Anisotropy =   107.3583

     38  C    Isotropic =    32.6370   Anisotropy =   260.6664

     39  C    Isotropic =    25.6962   Anisotropy =   177.1873

     40  C    Isotropic =    29.5006   Anisotropy =   180.9839

     41  C    Isotropic =    45.9509   Anisotropy =   193.2665

     42  H    Isotropic =    25.0141   Anisotropy =    12.6510

     43  C    Isotropic =    63.9296   Anisotropy =   217.3074

     44  H    Isotropic =    25.6562   Anisotropy =    14.6855

     45  C    Isotropic =    52.7619   Anisotropy =   224.0375

     46  H    Isotropic =    24.3695   Anisotropy =     7.6344

     47  H    Isotropic =    25.5615   Anisotropy =     5.9379

     48  H    Isotropic =    25.0990   Anisotropy =     2.0880

     49  C    Isotropic =    29.8995   Anisotropy =   194.9933

     50  C    Isotropic =    30.8574   Anisotropy =   179.3021

     51  C    Isotropic =    17.1905   Anisotropy =   151.6205

     52  C    Isotropic =    45.6764   Anisotropy =   191.2334

     53  H    Isotropic =    24.4742   Anisotropy =    10.7568

     54  C    Isotropic =    48.3085   Anisotropy =   199.0520

     55  H    Isotropic =    23.7892   Anisotropy =    13.7746

     56  C    Isotropic =    64.9102   Anisotropy =   268.1370

     57  H    Isotropic =    23.2098   Anisotropy =     6.1238

     58  H    Isotropic =    23.9644   Anisotropy =     9.0950

     59  H    Isotropic =    23.0267   Anisotropy =     5.5112

     60  C    Isotropic =     6.7924   Anisotropy =   211.5993

     61  C    Isotropic =     7.9617   Anisotropy =   138.2226

     62  C    Isotropic =    21.9975   Anisotropy =   157.5096

     63  C    Isotropic =    47.8012   Anisotropy =   219.4561

     64  H    Isotropic =    24.2911   Anisotropy =    12.8070

     65  C    Isotropic =    56.5021   Anisotropy =   217.7732

     66  H    Isotropic =    23.8179   Anisotropy =    14.1035

     67  C    Isotropic =    67.8298   Anisotropy =   279.4022

     68  H    Isotropic =    23.1917   Anisotropy =     7.3638

     69  H    Isotropic =    24.4550   Anisotropy =     7.7654

     70  H    Isotropic =    23.2838   Anisotropy =     5.3362

     71  C    Isotropic =    84.5724   Anisotropy =   389.0342

     72  C    Isotropic =    69.5818   Anisotropy =   187.0957

     73  C    Isotropic =    40.8464   Anisotropy =   173.0455

     74  C    Isotropic =    75.4259   Anisotropy =   164.8726

     75  H    Isotropic =    25.1165   Anisotropy =    11.5667

     76  C    Isotropic =    28.6967   Anisotropy =   107.5647

     77  H    Isotropic =    25.3916   Anisotropy =    12.9609

     78  C    Isotropic =     8.8273   Anisotropy =    44.3673

     79  H    Isotropic =    26.5384   Anisotropy =     6.1593

     80  H    Isotropic =    22.7620   Anisotropy =     9.6211

     81  H    Isotropic =    24.5760   Anisotropy =     2.9577

     82  Br   Isotropic =  2111.2159   Anisotropy =   300.8667

     83  Br   Isotropic =  2304.7002   Anisotropy =   593.7375

     84  Br   Isotropic =  2422.3455   Anisotropy =   484.1069

 The electronic state is 1-A.
 Alpha  occ. eigenvalues -- ********************-478.59911-478.59725-478.56781
 Alpha  occ. eigenvalues -- -427.54709-414.87768-414.87693-414.87440-149.63685
 Alpha  occ. eigenvalues -- -141.91498-141.91482-141.91366 -99.92785 -92.08652
 Alpha  occ. eigenvalues --  -92.08539 -92.08140 -79.04526 -79.04412 -79.04196
 Alpha  occ. eigenvalues --  -79.04127 -79.04072 -76.32133 -76.31752 -61.51729
 Alpha  occ. eigenvalues --  -61.51550 -61.48643 -55.70162 -55.69979 -55.69958
 Alpha  occ. eigenvalues --  -55.69936 -55.69777 -55.69760 -55.67057 -55.66871
 Alpha  occ. eigenvalues --  -55.66841 -28.80199 -25.14903 -25.14847 -25.14494
 Alpha  occ. eigenvalues --  -20.84240 -17.69778 -17.69774 -17.69543 -17.69503
 Alpha  occ. eigenvalues --  -17.69434 -17.41108 -17.40887 -17.40039 -11.59489
 Alpha  occ. eigenvalues --  -11.59081 -11.58632 -11.58486 -11.58370  -9.93153
 Alpha  occ. eigenvalues --   -9.92976  -9.92919  -9.92911  -9.92534  -9.92226
 Alpha  occ. eigenvalues --   -9.91706  -9.91649  -9.91273  -9.91217  -9.91181
 Alpha  occ. eigenvalues --   -9.91167  -9.91018  -9.91004  -9.90991  -9.90971
 Alpha  occ. eigenvalues --   -9.90905  -9.90898  -9.90838  -9.90804  -9.90697
 Alpha  occ. eigenvalues --   -9.90683  -9.90665  -9.90628  -9.90602  -9.90442
 Alpha  occ. eigenvalues --   -9.90397  -9.90368  -9.90280  -9.90250  -9.90241
 Alpha  occ. eigenvalues --   -9.90174  -9.90162  -9.90119  -9.90076  -9.90034
 Alpha  occ. eigenvalues --   -9.89990  -9.89838  -9.89823  -9.89770  -9.89666
 Alpha  occ. eigenvalues --   -9.89550  -8.34514  -8.34344  -8.31558  -6.35102
 Alpha  occ. eigenvalues --   -6.34782  -6.25234  -6.25056  -6.24638  -6.24577
 Alpha  occ. eigenvalues --   -6.24464  -6.24420  -6.22255  -6.21701  -6.21624
 Alpha  occ. eigenvalues --   -4.57642  -4.57634  -4.57354  -4.57325  -4.57299
 Alpha  occ. eigenvalues --   -4.57028  -4.49085  -3.22687  -3.22584  -3.21923
 Alpha  occ. eigenvalues --   -3.14353  -3.14326  -3.13843  -3.13550  -3.13408
 Alpha  occ. eigenvalues --   -3.13277  -3.13237  -2.87105  -2.46212  -2.46067
 Alpha  occ. eigenvalues --   -2.46035  -2.46023  -2.45889  -2.45856  -2.45581
 Alpha  occ. eigenvalues --   -2.45580  -2.45418  -2.45417  -2.43234  -2.43105
 Alpha  occ. eigenvalues --   -2.43051  -2.42642  -2.42640  -1.82310  -1.81719
 Alpha  occ. eigenvalues --   -1.79362  -1.01795  -1.01656  -1.01187  -1.01126
 Alpha  occ. eigenvalues --   -1.01064  -0.80199  -0.80002  -0.79425  -0.79083
 Alpha  occ. eigenvalues --   -0.78943  -0.78816  -0.78027  -0.72110  -0.71902
 Alpha  occ. eigenvalues --   -0.69367  -0.69349  -0.69066  -0.68932  -0.68870
 Alpha  occ. eigenvalues --   -0.68710  -0.68565  -0.68444  -0.68370  -0.68281
 Alpha  occ. eigenvalues --   -0.68096  -0.67930  -0.67026  -0.66926  -0.64469
 Alpha  occ. eigenvalues --   -0.61222  -0.60917  -0.56519  -0.56156  -0.56124
 Alpha  occ. eigenvalues --   -0.55863  -0.55611  -0.55357  -0.55061  -0.54942
 Alpha  occ. eigenvalues --   -0.54787  -0.54707  -0.54543  -0.53856  -0.52214
 Alpha  occ. eigenvalues --   -0.51878  -0.48028  -0.47866  -0.47717  -0.47540
 Alpha  occ. eigenvalues --   -0.46927  -0.46120  -0.45648  -0.42682  -0.42202
 Alpha  occ. eigenvalues --   -0.42151  -0.42044  -0.41759  -0.41578  -0.41452
 Alpha  occ. eigenvalues --   -0.41313  -0.40973  -0.40938  -0.40795  -0.40542
 Alpha  occ. eigenvalues --   -0.40420  -0.40246  -0.39630  -0.39031  -0.38661
 Alpha  occ. eigenvalues --   -0.38559  -0.38490  -0.38352  -0.38250  -0.38170
 Alpha  occ. eigenvalues --   -0.38050  -0.37575  -0.37545  -0.37364  -0.36866
 Alpha  occ. eigenvalues --   -0.35275  -0.34848  -0.34755  -0.34527  -0.34375
 Alpha  occ. eigenvalues --   -0.33955  -0.33781  -0.33403  -0.33115  -0.32618
 Alpha  occ. eigenvalues --   -0.31967  -0.31859  -0.31586  -0.31354  -0.31294
 Alpha  occ. eigenvalues --   -0.31202  -0.31074  -0.30979  -0.30446  -0.30338
 Alpha  occ. eigenvalues --   -0.30249  -0.30028  -0.29967  -0.28712  -0.28326
 Alpha  occ. eigenvalues --   -0.27456  -0.26975  -0.26728  -0.26166  -0.25527
 Alpha  occ. eigenvalues --   -0.25303  -0.25190  -0.25000  -0.24949  -0.24877
 Alpha  occ. eigenvalues --   -0.24573  -0.24553  -0.24456  -0.24207  -0.24103
 Alpha  occ. eigenvalues --   -0.23886  -0.23729  -0.23442  -0.23162  -0.22954
 Alpha  occ. eigenvalues --   -0.22672  -0.22292  -0.21331  -0.21298  -0.20775
 Alpha virt. eigenvalues --   -0.11326  -0.08229  -0.07460  -0.07144  -0.06872
 Alpha virt. eigenvalues --   -0.06624  -0.06443  -0.06229  -0.06029  -0.05839
 Alpha virt. eigenvalues --   -0.05632  -0.05579  -0.04989  -0.04760  -0.04647

 Mulliken charges:
               1
     1  Pt   0.080413
     2  P    0.917802
     3  C   -0.994571
     4  C    0.289652
     5  C    0.504572
     6  C   -0.137244
     7  H    0.092625
     8  C   -0.119322
     9  H    0.120331
    10  C   -0.494823
    11  H    0.140122
    12  H    0.138248
    13  H    0.150053
    14  C   -0.578844
    15  C    0.177794
    16  C    0.500174
    17  C   -0.245456
    18  H    0.096565
    19  C   -0.046717
    20  H    0.076851
    21  C   -0.552762
    22  H    0.144238
    23  H    0.143313
    24  H    0.154044
    25  C   -0.645597
    26  C    0.257278
    27  C    0.286337
    28  C    0.075122
    29  H    0.108719
    30  C   -0.264494
    31  H    0.113436
    32  C   -0.609831
    33  H    0.146483
    34  H    0.143398
    35  H    0.154061
    36  Sn  -0.254878
    37  P    1.432840
    38  C   -0.797017
    39  C    0.438642
    40  C    0.242136
    41  C   -0.060499
    42  H    0.103599
    43  C   -0.146023
    44  H    0.104314
    45  C   -0.569305
    46  H    0.146029
    47  H    0.143770
    48  H    0.151975
    49  C   -0.900974
    50  C    0.359805
    51  C    0.263712
    52  C    0.045118
    53  H    0.095262
    54  C   -0.110879
    55  H    0.071435
    56  C   -0.565191
    57  H    0.143299
    58  H    0.132995
    59  H    0.152013
    60  C   -0.802170
    61  C    0.155951
    62  C    0.513158
    63  C   -0.027900
    64  H    0.065267
    65  C   -0.045156
    66  H    0.059307
    67  C   -0.515428
    68  H    0.126276
    69  H    0.132236
    70  H    0.135817
    71  C    0.436682
    72  C   -0.088535
    73  C   -0.148165
    74  C   -0.222570
    75  H    0.110048
    76  C   -0.162073
    77  H    0.128594
    78  C   -0.494038
    79  H    0.146201
    80  H    0.140310
    81  H    0.151501
    82  Br  -0.377494
    83  Br  -0.190079
    84  Br  -0.171891
 Sum of Mulliken charges =   0.00000

 Dipole moment (field-independent basis, Debye):
    X=             -4.0164    Y=              3.7674    Z=              0.5331  Tot=              5.5326
 Quadrupole moment (field-independent basis, Debye-Ang):
   XX=           -313.9207   YY=           -398.6724   ZZ=           -338.4071
   XY=             -8.3970   XZ=             -0.0679   YZ=             -7.0428

 Normal termination of Gaussian 09 at Tue Dec  3 22:34:44 2019.
