 Gaussian 09, Revision D.01,
 Gaussian 09:  EM64L-G09RevD.01 24-Apr-2013

 ----------------------------------------------------------------------
 #PBEPBE/gen scf=(maxcycle=500,conver=4) NMR=GIAO Scrf=(solvent=Dichlor
 omethane)
 ----------------------------------------------------------------------

 ------------
 estrutura 36
 ------------
 Symbolic Z-matrix:
 Charge = -1 Multiplicity = 1

                         Standard orientation:
 ---------------------------------------------------------------------
 Center     Atomic      Atomic             Coordinates (Angstroms)
 Number     Number       Type             X           Y           Z
 ---------------------------------------------------------------------
      1         78           0       -0.006772   -0.387057    0.019089
      2         17           0       -0.086257   -2.735991    0.748848
      3         50           0        2.635324   -0.711509   -0.098776
      4         50           0       -2.652562   -0.605552   -0.175559
      5         17           0        3.979203    0.810596    1.280527
      6         17           0        3.646697   -0.274963   -2.269618
      7         17           0        3.776340   -2.770953    0.432701
      8         17           0       -3.983626   -0.110688    1.809183
      9         17           0       -3.848795    0.712907   -1.852197
     10         17           0       -3.626449   -2.742728   -0.760556
     11         33           0        0.147008    2.049830   -0.043333
     12          6           0        0.486064    2.383366    1.883215
     13          1           0        1.581358    2.300551    1.960981
     14          1           0        0.210414    3.422051    2.122007
     15          6           0       -0.189876    1.372729    2.824237
     16          1           0       -1.279203    1.519920    2.878925
     17          1           0       -0.033921    0.332523    2.490496
     18          1           0        0.218070    1.476866    3.842254
     19          6           0        1.677970    2.844675   -0.992586
     20          1           0        2.558216    2.312100   -0.605235
     21          1           0        1.560955    2.552741   -2.047652
     22          6           0        1.846607    4.353915   -0.830151
     23          1           0        1.958559    4.644463    0.225937
     24          1           0        2.756096    4.681797   -1.359012
     25          1           0        1.003853    4.921199   -1.252905
     26          6           0       -1.396338    3.127049   -0.618595
     27          1           0       -1.788326    2.628163   -1.516664
     28          1           0       -0.987764    4.100808   -0.927612
     29          6           0       -2.494044    3.305659    0.427403
     30          1           0       -2.136736    3.860205    1.308677
     31          1           0       -3.330192    3.875670   -0.007876
     32          1           0       -2.905711    2.346642    0.773256
 ---------------------------------------------------------------------

 SCF Done:  E(RPBE-PBE) =  -34759.8084125     A.U. after    8 cycles

      1  Pt   Isotropic =  3116.4282   Anisotropy =  2185.7038

      2  Cl   Isotropic =  1069.4662   Anisotropy =   940.3130

      3  Sn   Isotropic =  2171.5090   Anisotropy =   706.8561

      4  Sn   Isotropic =  2159.4920   Anisotropy =   722.4156

      5  Cl   Isotropic =   746.0963   Anisotropy =   327.0744

      6  Cl   Isotropic =   745.7132   Anisotropy =   356.5056

      7  Cl   Isotropic =   795.9017   Anisotropy =   269.5931

      8  Cl   Isotropic =   724.6129   Anisotropy =   370.1672

      9  Cl   Isotropic =   761.2056   Anisotropy =   342.0062

     10  Cl   Isotropic =   774.3030   Anisotropy =   302.1212

     11  As   Isotropic =   955.4432   Anisotropy =   247.0503

     12  C    Isotropic =   156.0531   Anisotropy =    25.4427

     13  H    Isotropic =    29.0379   Anisotropy =     9.4072

     14  H    Isotropic =    29.2293   Anisotropy =    11.3671

     15  C    Isotropic =   164.6968   Anisotropy =    22.8281

     16  H    Isotropic =    29.9999   Anisotropy =     7.4101

     17  H    Isotropic =    28.9797   Anisotropy =    13.5077

     18  H    Isotropic =    29.8934   Anisotropy =    13.7264

     19  C    Isotropic =   142.3263   Anisotropy =    38.4784

     20  H    Isotropic =    28.6126   Anisotropy =    11.1365

     21  H    Isotropic =    28.9949   Anisotropy =     7.6020

     22  C    Isotropic =   171.7770   Anisotropy =    24.1667

     23  H    Isotropic =    30.5732   Anisotropy =     8.8262

     24  H    Isotropic =    29.8947   Anisotropy =    13.5645

     25  H    Isotropic =    30.2325   Anisotropy =    10.0795

     26  C    Isotropic =   156.8145   Anisotropy =    27.3577

     27  H    Isotropic =    29.0079   Anisotropy =     8.6653

     28  H    Isotropic =    28.6539   Anisotropy =    11.5326

     29  C    Isotropic =   171.6012   Anisotropy =    13.2521

     30  H    Isotropic =    30.4519   Anisotropy =     9.4826

     31  H    Isotropic =    29.7727   Anisotropy =    13.2370

     32  H    Isotropic =    29.7538   Anisotropy =     9.9910

 The electronic state is 1-A.
 Alpha  occ. eigenvalues -- ******************************-427.53231-422.28205
 Alpha  occ. eigenvalues -- -414.86252-414.86235-414.85957-149.65336-149.65331
 Alpha  occ. eigenvalues -- -141.93152-141.93147-141.93146-141.93141-141.93081
 Alpha  occ. eigenvalues -- -141.93074-100.55478-100.55277-100.55229-100.55226
 Alpha  occ. eigenvalues -- -100.55138-100.55094-100.52756 -99.91308 -92.07129
 Alpha  occ. eigenvalues --  -92.07109 -92.06654 -79.03045 -79.02935 -79.02693
 Alpha  occ. eigenvalues --  -79.02663 -79.02590 -52.99888 -47.59149 -47.59143
 Alpha  occ. eigenvalues --  -47.59095 -28.81695 -28.81691 -25.16331 -25.16327
 Alpha  occ. eigenvalues --  -25.16317 -25.16311 -25.16101 -25.16098 -20.82783
 Alpha  occ. eigenvalues --  -17.71223 -17.71221 -17.71219 -17.71217 -17.71078
 Alpha  occ. eigenvalues --  -17.71076 -17.71067 -17.71065 -17.71025 -17.71024
 Alpha  occ. eigenvalues --  -17.39559 -17.39522 -17.38575 -11.58024 -11.57626
 Alpha  occ. eigenvalues --  -11.57144 -11.57056 -11.56913  -9.90795  -9.90761
 Alpha  occ. eigenvalues --   -9.90642  -9.88727  -9.88476  -9.88071  -9.13304
 Alpha  occ. eigenvalues --   -9.13111  -9.13053  -9.13051  -9.12980  -9.12933
 Alpha  occ. eigenvalues --   -9.10484  -6.97121  -6.96892  -6.96835  -6.96815
 Alpha  occ. eigenvalues --   -6.96791  -6.96705  -6.96491  -6.96467  -6.96312
 Alpha  occ. eigenvalues --   -6.96295  -6.96261  -6.96256  -6.96246  -6.96236
 Alpha  occ. eigenvalues --   -6.96170  -6.96142  -6.96137  -6.96122  -6.94279
 Alpha  occ. eigenvalues --   -6.93712  -6.93657  -6.72023  -4.84824  -4.84817
 Alpha  occ. eigenvalues --   -4.84687  -4.50382  -4.50362  -3.23817  -3.23794
 Alpha  occ. eigenvalues --   -3.23794  -3.23770  -3.23431  -3.23411  -3.12882
 Alpha  occ. eigenvalues --   -3.12873  -3.12370  -3.12094  -3.11922  -3.11851
 Alpha  occ. eigenvalues --   -3.11794  -2.85745  -1.80716  -1.80638  -1.78115
 Alpha  occ. eigenvalues --   -1.52671  -1.52654  -1.52534  -1.52519  -1.52511
 Alpha  occ. eigenvalues --   -1.02877  -1.02834  -1.02823  -1.02794  -1.02513
 Alpha  occ. eigenvalues --   -1.02484  -1.02433  -1.02404  -1.02396  -1.02347
 Alpha  occ. eigenvalues --   -0.72178  -0.71878  -0.71720  -0.70314  -0.70228
 Alpha  occ. eigenvalues --   -0.70180  -0.70074  -0.69004  -0.68600  -0.67570
 Alpha  occ. eigenvalues --   -0.60273  -0.55910  -0.55620  -0.49115  -0.42325
 Alpha  occ. eigenvalues --   -0.41563  -0.41370  -0.40613  -0.40239  -0.38919
 Alpha  occ. eigenvalues --   -0.37198  -0.36869  -0.34537  -0.34132  -0.33949
 Alpha  occ. eigenvalues --   -0.32714  -0.32529  -0.32282  -0.32061  -0.31895
 Alpha  occ. eigenvalues --   -0.31826  -0.31532  -0.30893  -0.30729  -0.29958
 Alpha  occ. eigenvalues --   -0.28759  -0.28512  -0.27329  -0.27259  -0.27153
 Alpha  occ. eigenvalues --   -0.27064  -0.26958  -0.26910  -0.26409  -0.26259
 Alpha  occ. eigenvalues --   -0.25869  -0.25727  -0.25648  -0.25574  -0.25493
 Alpha  occ. eigenvalues --   -0.25268  -0.24363  -0.22880  -0.22011  -0.21060
 Alpha  occ. eigenvalues --   -0.20070
 Alpha virt. eigenvalues --   -0.12109  -0.06194  -0.03953  -0.03833  -0.02604
 Alpha virt. eigenvalues --   -0.02347  -0.02223  -0.01239  -0.00182   0.00027
 Alpha virt. eigenvalues --    0.00489   0.01078   0.01366   0.01735   0.01839

 Mulliken charges:
               1
     1  Pt  -0.111437
     2  Cl  -0.561849
     3  Sn   0.343700
     4  Sn   0.294812
     5  Cl  -0.315523
     6  Cl  -0.284961
     7  Cl  -0.167281
     8  Cl  -0.284989
     9  Cl  -0.288495
    10  Cl  -0.192450
    11  As   0.334953
    12  C   -0.496134
    13  H    0.156663
    14  H    0.145618
    15  C   -0.059192
    16  H    0.097298
    17  H    0.074976
    18  H    0.129819
    19  C   -0.373750
    20  H    0.126077
    21  H    0.142910
    22  C   -0.184908
    23  H    0.117987
    24  H    0.147803
    25  H    0.118599
    26  C   -0.455099
    27  H    0.137128
    28  H    0.142530
    29  C   -0.040981
    30  H    0.118370
    31  H    0.129843
    32  H    0.057962
 Sum of Mulliken charges =  -1.00000

 Dipole moment (field-independent basis, Debye):
    X=              0.8924    Y=             15.5517    Z=              0.2569  Tot=             15.5794
 Quadrupole moment (field-independent basis, Debye-Ang):
   XX=           -329.2802   YY=           -246.2935   ZZ=           -247.4960
   XY=              0.1066   XZ=             -1.5804   YZ=              2.4656

 Normal termination of Gaussian 09 at Thu May 30 11:44:20 2019.
