 Gaussian 09, Revision D.01,
 Gaussian 09:  EM64L-G09RevD.01 24-Apr-2013

 ----------------------------------------------------------------------
 #PBEPBE/gen scf=(maxcycle=1000,conver=4) NMR=GIAO Scrf=(solvent=Chloro
 form)
 ----------------------------------------------------------------------

 ------------
 estrutura 11
 ------------
 Symbolic Z-matrix:
 Charge =  0 Multiplicity = 1

                         Standard orientation:
 ---------------------------------------------------------------------
 Center     Atomic      Atomic             Coordinates (Angstroms)
 Number     Number       Type             X           Y           Z
 ---------------------------------------------------------------------
      1         78           0       -0.145059   -0.890844   -0.105081
      2         50           0       -2.569819   -2.030327   -0.073082
      3         17           0       -4.673634   -0.814556    0.066876
      4         17           0       -2.936108   -3.441869    1.864275
      5         17           0       -3.141162   -3.488252   -1.913991
      6         17           0        0.338441   -3.276895   -0.171219
      7         15           0       -1.006196    1.268131   -0.073941
      8         15           0        2.210581   -0.413529    0.075377
      9          6           0        0.103475    2.716845   -0.346775
     10          6           0        0.877607    3.220195    0.714002
     11          6           0        0.183570    3.355648   -1.592915
     12          6           0        1.700462    4.329450    0.528070
     13          1           0        0.826105    2.759940    1.700299
     14          6           0        1.013707    4.464595   -1.770739
     15          1           0       -0.411387    3.000102   -2.434391
     16          6           0        1.788838    4.973159   -0.717317
     17          1           0        2.284536    4.705547    1.372981
     18          1           0        1.053838    4.945929   -2.750101
     19          6           0       -1.822624    1.691883    1.521545
     20          6           0       -2.200100    3.020225    1.804349
     21          6           0       -2.075952    0.710566    2.493147
     22          6           0       -2.834118    3.339271    3.004525
     23          1           0       -1.984830    3.822053    1.095608
     24          6           0       -2.705709    1.040793    3.694582
     25          1           0       -1.766941   -0.322151    2.326330
     26          6           0       -3.106227    2.355099    3.971719
     27          1           0       -3.117322    4.379682    3.196430
     28          1           0       -2.885553    0.254047    4.430644
     29          6           0       -2.256567    1.438500   -1.420502
     30          6           0       -3.388845    2.260480   -1.299445
     31          6           0       -2.060280    0.747078   -2.627119
     32          6           0       -4.288522    2.387587   -2.355947
     33          1           0       -3.594455    2.787404   -0.367452
     34          6           0       -2.964819    0.883581   -3.683554
     35          1           0       -1.205434    0.076797   -2.747974
     36          6           0       -4.095500    1.706702   -3.570022
     37          1           0       -5.170331    3.021671   -2.229268
     38          1           0       -2.791938    0.325535   -4.608464
     39          6           0        2.545359    0.362353    1.708959
     40          6           0        3.451121    1.411779    1.932727
     41          6           0        1.855894   -0.172016    2.812374
     42          6           0        3.668052    1.897093    3.223598
     43          1           0        3.982616    1.875800    1.102225
     44          6           0        2.085221    0.314165    4.101392
     45          1           0        1.132183   -0.977522    2.668335
     46          6           0        2.996747    1.355917    4.333978
     47          1           0        4.377346    2.716598    3.370155
     48          1           0        1.540128   -0.125057    4.940608
     49          6           0        2.945986    0.561891   -1.296669
     50          6           0        4.303688    0.938561   -1.293965
     51          6           0        2.193005    0.788587   -2.461534
     52          6           0        4.868600    1.564011   -2.406007
     53          1           0        4.943658    0.718339   -0.434460
     54          6           0        2.773035    1.392345   -3.579004
     55          1           0        1.152243    0.466357   -2.503360
     56          6           0        4.116085    1.804335   -3.569119
     57          1           0        5.926478    1.852316   -2.375866
     58          1           0        2.167354    1.541022   -4.477793
     59          6           0        3.290449   -1.907917    0.046777
     60          6           0        3.508126   -2.552012   -1.183733
     61          6           0        3.904855   -2.428676    1.194581
     62          6           0        4.329513   -3.674660   -1.261109
     63          1           0        3.034290   -2.177168   -2.093424
     64          6           0        4.727031   -3.555694    1.106908
     65          1           0        3.752195   -1.958970    2.167331
     66          6           0        4.959616   -4.197586   -0.118860
     67          1           0        4.481328   -4.158762   -2.229893
     68          1           0        5.197584   -3.941606    2.015679
     69          6           0       -3.817285    2.702446    5.254438
     70          1           0       -3.650304    3.751218    5.540017
     71          1           0       -4.905941    2.562774    5.143175
     72          1           0       -3.491574    2.058383    6.084338
     73          6           0       -5.082246    1.850581   -4.700266
     74          1           0       -6.100339    1.584984   -4.371851
     75          1           0       -5.123168    2.892672   -5.060137
     76          1           0       -4.820374    1.206868   -5.552146
     77          6           0        2.691582    6.165257   -0.910048
     78          1           0        2.482718    6.684798   -1.857675
     79          1           0        2.579107    6.889973   -0.087599
     80          1           0        3.752593    5.857318   -0.924996
     81          6           0        3.241537    1.891339    5.721638
     82          1           0        2.759995    1.266448    6.487478
     83          1           0        4.319308    1.940308    5.945454
     84          1           0        2.845768    2.915804    5.825770
     85          6           0        5.875939   -5.391465   -0.212685
     86          1           0        5.636165   -6.016890   -1.085748
     87          1           0        6.928037   -5.071505   -0.317240
     88          1           0        5.816288   -6.018423    0.690250
     89          6           0        4.726336    2.480930   -4.771170
     90          1           0        5.822640    2.526953   -4.698334
     91          1           0        4.463020    1.955665   -5.702710
     92          1           0        4.354168    3.515306   -4.869154
 ---------------------------------------------------------------------

 SCF Done:  E(RPBE-PBE) =  -27237.7474596     A.U. after   12 cycles

      1  Pt   Isotropic =  2992.0495   Anisotropy =  1625.1239

      2  Sn   Isotropic =  2196.0343   Anisotropy =   633.7171

      3  Cl   Isotropic =   758.4360   Anisotropy =   296.2902

      4  Cl   Isotropic =   763.9659   Anisotropy =   323.8252

      5  Cl   Isotropic =   781.6602   Anisotropy =   322.5917

      6  Cl   Isotropic =   918.7855   Anisotropy =   601.3983

      7  P    Isotropic =   237.9966   Anisotropy =   115.6492

      8  P    Isotropic =   250.9147   Anisotropy =   102.0586

      9  C    Isotropic =    39.3204   Anisotropy =   159.3960

     10  C    Isotropic =    40.0957   Anisotropy =   174.3780

     11  C    Isotropic =    42.7759   Anisotropy =   185.5224

     12  C    Isotropic =    44.6934   Anisotropy =   159.2154

     13  H    Isotropic =    26.2322   Anisotropy =     8.1840

     14  C    Isotropic =    50.5544   Anisotropy =   158.6805

     15  H    Isotropic =    24.7981   Anisotropy =    12.4702

     16  C    Isotropic =    31.0466   Anisotropy =   191.6402

     17  H    Isotropic =    24.5283   Anisotropy =     8.5039

     18  H    Isotropic =    24.7694   Anisotropy =     7.0701

     19  C    Isotropic =    41.7182   Anisotropy =   160.5929

     20  C    Isotropic =    36.2841   Anisotropy =   172.3210

     21  C    Isotropic =    36.7523   Anisotropy =   172.2779

     22  C    Isotropic =    45.4016   Anisotropy =   156.2147

     23  H    Isotropic =    24.3922   Anisotropy =    12.3097

     24  C    Isotropic =    50.6777   Anisotropy =   164.1190

     25  H    Isotropic =    23.0321   Anisotropy =    14.0665

     26  C    Isotropic =    38.0873   Anisotropy =   208.1016

     27  H    Isotropic =    23.5781   Anisotropy =     7.9948

     28  H    Isotropic =    23.8524   Anisotropy =    10.4135

     29  C    Isotropic =    41.4508   Anisotropy =   172.4139

     30  C    Isotropic =    45.2700   Anisotropy =   176.8552

     31  C    Isotropic =    42.4329   Anisotropy =   170.8698

     32  C    Isotropic =    51.9299   Anisotropy =   178.0361

     33  H    Isotropic =    24.0449   Anisotropy =    12.1574

     34  C    Isotropic =    51.1199   Anisotropy =   164.1563

     35  H    Isotropic =    22.7930   Anisotropy =    14.1483

     36  C    Isotropic =    38.3403   Anisotropy =   218.9962

     37  H    Isotropic =    23.8797   Anisotropy =     7.8213

     38  H    Isotropic =    23.6509   Anisotropy =     8.8969

     39  C    Isotropic =    43.4331   Anisotropy =   161.2594

     40  C    Isotropic =    43.4137   Anisotropy =   180.8778

     41  C    Isotropic =    39.1221   Anisotropy =   174.2059

     42  C    Isotropic =    49.9944   Anisotropy =   169.0643

     43  H    Isotropic =    23.8208   Anisotropy =     9.4727

     44  C    Isotropic =    47.9442   Anisotropy =   157.9802

     45  H    Isotropic =    23.4771   Anisotropy =    13.1236

     46  C    Isotropic =    36.5115   Anisotropy =   216.0985

     47  H    Isotropic =    23.9976   Anisotropy =     6.8418

     48  H    Isotropic =    23.8993   Anisotropy =     8.9323

     49  C    Isotropic =    48.2157   Anisotropy =   162.6369

     50  C    Isotropic =    43.8295   Anisotropy =   179.5255

     51  C    Isotropic =    38.0349   Anisotropy =   171.1327

     52  C    Isotropic =    51.5195   Anisotropy =   161.4416

     53  H    Isotropic =    24.2895   Anisotropy =    11.0375

     54  C    Isotropic =    50.0040   Anisotropy =   167.4813

     55  H    Isotropic =    23.4428   Anisotropy =    12.3825

     56  C    Isotropic =    37.8658   Anisotropy =   201.8487

     57  H    Isotropic =    24.3957   Anisotropy =     6.2547

     58  H    Isotropic =    24.1211   Anisotropy =    10.0522

     59  C    Isotropic =    40.5688   Anisotropy =   158.9778

     60  C    Isotropic =    41.8671   Anisotropy =   180.9597

     61  C    Isotropic =    45.9674   Anisotropy =   175.1401

     62  C    Isotropic =    51.1196   Anisotropy =   161.6648

     63  H    Isotropic =    24.8013   Anisotropy =    12.5571

     64  C    Isotropic =    50.2415   Anisotropy =   161.2400

     65  H    Isotropic =    24.7729   Anisotropy =    13.6495

     66  C    Isotropic =    40.5861   Anisotropy =   209.6906

     67  H    Isotropic =    24.3200   Anisotropy =     8.6253

     68  H    Isotropic =    24.1446   Anisotropy =     8.6550

     69  C    Isotropic =   159.7324   Anisotropy =    45.7605

     70  H    Isotropic =    29.1564   Anisotropy =     8.4467

     71  H    Isotropic =    28.6764   Anisotropy =     9.6547

     72  H    Isotropic =    28.9420   Anisotropy =     7.5246

     73  C    Isotropic =   159.6607   Anisotropy =    45.0391

     74  H    Isotropic =    28.7526   Anisotropy =     8.5449

     75  H    Isotropic =    28.7936   Anisotropy =     9.8159

     76  H    Isotropic =    29.1536   Anisotropy =     7.4035

     77  C    Isotropic =   159.9142   Anisotropy =    42.5899

     78  H    Isotropic =    29.6890   Anisotropy =     8.0513

     79  H    Isotropic =    29.0995   Anisotropy =     9.8528

     80  H    Isotropic =    29.1616   Anisotropy =     7.2002

     81  C    Isotropic =   158.4887   Anisotropy =    47.6968

     82  H    Isotropic =    29.3505   Anisotropy =     6.9271

     83  H    Isotropic =    28.9743   Anisotropy =     9.5624

     84  H    Isotropic =    28.8614   Anisotropy =     7.7114

     85  C    Isotropic =   158.7895   Anisotropy =    47.5522

     86  H    Isotropic =    29.4266   Anisotropy =     7.4793

     87  H    Isotropic =    29.0035   Anisotropy =     9.8144

     88  H    Isotropic =    29.0015   Anisotropy =     8.5622

     89  C    Isotropic =   158.5271   Anisotropy =    46.8949

     90  H    Isotropic =    29.4992   Anisotropy =     8.5697

     91  H    Isotropic =    29.0652   Anisotropy =     8.1189

     92  H    Isotropic =    28.9234   Anisotropy =     7.4395

 The electronic state is 1-A.
 Alpha  occ. eigenvalues -- ********************-427.54555-414.87595-414.87578
 Alpha  occ. eigenvalues -- -414.87296-149.65284-141.93096-141.93090-141.93028
 Alpha  occ. eigenvalues -- -100.55143-100.54933-100.54567-100.52958 -99.92610
 Alpha  occ. eigenvalues --  -92.08427 -92.08404 -92.07980 -79.04347 -79.04227
 Alpha  occ. eigenvalues --  -79.04003 -79.03981 -79.03912 -76.32628 -76.31725
 Alpha  occ. eigenvalues --  -28.81665 -25.16304 -25.16276 -25.16078 -20.84085
 Alpha  occ. eigenvalues --  -17.71185 -17.71184 -17.71050 -17.71032 -17.70996
 Alpha  occ. eigenvalues --  -17.40849 -17.40808 -17.39917 -11.59320 -11.58890
 Alpha  occ. eigenvalues --  -11.58441 -11.58387 -11.58251  -9.92503  -9.92453
 Alpha  occ. eigenvalues --   -9.92423  -9.92206  -9.92171  -9.92139  -9.92073
 Alpha  occ. eigenvalues --   -9.91941  -9.91891  -9.91677  -9.91664  -9.91419
 Alpha  occ. eigenvalues --   -9.91312  -9.91267  -9.91255  -9.91217  -9.91162
 Alpha  occ. eigenvalues --   -9.91124  -9.91079  -9.91004  -9.90997  -9.90776
 Alpha  occ. eigenvalues --   -9.90688  -9.90635  -9.90594  -9.90566  -9.90473
 Alpha  occ. eigenvalues --   -9.90410  -9.90393  -9.90348  -9.90338  -9.90296
 Alpha  occ. eigenvalues --   -9.90281  -9.90147  -9.89715  -9.89686  -9.89410
 Alpha  occ. eigenvalues --   -9.89384  -9.89363  -9.89113  -9.88943  -9.88725
 Alpha  occ. eigenvalues --   -9.12996  -9.12790  -9.12435  -9.10760  -6.96815
 Alpha  occ. eigenvalues --   -6.96598  -6.96231  -6.96181  -6.96149  -6.95986
 Alpha  occ. eigenvalues --   -6.95944  -6.95624  -6.95604  -6.94548  -6.93971
 Alpha  occ. eigenvalues --   -6.93933  -6.35478  -6.34676  -4.58007  -4.57998
 Alpha  occ. eigenvalues --   -4.57782  -4.57225  -4.57193  -4.56933  -4.50377
 Alpha  occ. eigenvalues --   -3.23807  -3.23784  -3.23441  -3.14166  -3.14159
 Alpha  occ. eigenvalues --   -3.13684  -3.13385  -3.13235  -3.13187  -3.13130
 Alpha  occ. eigenvalues --   -2.87072  -1.82101  -1.81926  -1.79402  -1.02856
 Alpha  occ. eigenvalues --   -1.02843  -1.02476  -1.02470  -1.02383  -0.80310
 Alpha  occ. eigenvalues --   -0.80156  -0.79651  -0.79449  -0.79348  -0.78882
 Alpha  occ. eigenvalues --   -0.73461  -0.73284  -0.71632  -0.71472  -0.71223
 Alpha  occ. eigenvalues --   -0.71127  -0.70742  -0.70097  -0.69710  -0.69234
 Alpha  occ. eigenvalues --   -0.68968  -0.68951  -0.68788  -0.68652  -0.68257
 Alpha  occ. eigenvalues --   -0.68066  -0.65766  -0.65617  -0.62976  -0.62724
 Alpha  occ. eigenvalues --   -0.62633  -0.62284  -0.58140  -0.57911  -0.56615
 Alpha  occ. eigenvalues --   -0.56395  -0.55987  -0.55972  -0.55689  -0.55361
 Alpha  occ. eigenvalues --   -0.53766  -0.53688  -0.53520  -0.53337  -0.51981
 Alpha  occ. eigenvalues --   -0.51733  -0.46771  -0.46639  -0.46563  -0.46160
 Alpha  occ. eigenvalues --   -0.44085  -0.43953  -0.43309  -0.43171  -0.42917
 Alpha  occ. eigenvalues --   -0.42802  -0.42569  -0.42316  -0.41822  -0.41231
 Alpha  occ. eigenvalues --   -0.41212  -0.41044  -0.40811  -0.40443  -0.40086
 Alpha  occ. eigenvalues --   -0.38908  -0.38754  -0.38635  -0.38460  -0.38348
 Alpha  occ. eigenvalues --   -0.38290  -0.38239  -0.38190  -0.37987  -0.37928
 Alpha  occ. eigenvalues --   -0.37706  -0.37680  -0.37376  -0.36949  -0.36819
 Alpha  occ. eigenvalues --   -0.36601  -0.36502  -0.35738  -0.34755  -0.34741
 Alpha  occ. eigenvalues --   -0.34705  -0.34506  -0.34398  -0.34104  -0.33693
 Alpha  occ. eigenvalues --   -0.33486  -0.33299  -0.33205  -0.33095  -0.32598
 Alpha  occ. eigenvalues --   -0.32470  -0.32372  -0.32074  -0.31784  -0.31140
 Alpha  occ. eigenvalues --   -0.31078  -0.31025  -0.30958  -0.30810  -0.30559
 Alpha  occ. eigenvalues --   -0.30445  -0.30266  -0.30156  -0.29790  -0.29444
 Alpha  occ. eigenvalues --   -0.28354  -0.27872  -0.27066  -0.27032  -0.26755
 Alpha  occ. eigenvalues --   -0.26638  -0.25789  -0.25577  -0.25336  -0.25073
 Alpha  occ. eigenvalues --   -0.24977  -0.24632  -0.24291  -0.24149  -0.24059
 Alpha  occ. eigenvalues --   -0.23827  -0.23691  -0.23575  -0.23415  -0.23023
 Alpha  occ. eigenvalues --   -0.22866  -0.22459  -0.22182  -0.21261  -0.20815
 Alpha virt. eigenvalues --   -0.11577  -0.07754  -0.07582  -0.06828  -0.06617
 Alpha virt. eigenvalues --   -0.06436  -0.06260  -0.06013  -0.05756  -0.05630
 Alpha virt. eigenvalues --   -0.05272  -0.05032  -0.04458  -0.04085  -0.02315

 Mulliken charges:
               1
     1  Pt   0.131886
     2  Sn   0.388129
     3  Cl  -0.210613
     4  Cl  -0.225810
     5  Cl  -0.210665
     6  Cl  -0.356496
     7  P    1.354527
     8  P    1.141456
     9  C   -1.103811
    10  C    0.650748
    11  C    0.488114
    12  C   -0.308081
    13  H    0.054920
    14  C   -0.593047
    15  H    0.067336
    16  C    0.106535
    17  H    0.066366
    18  H    0.068896
    19  C   -0.938016
    20  C    0.505448
    21  C    0.469928
    22  C   -0.299882
    23  H    0.085642
    24  C   -0.423749
    25  H    0.058984
    26  C   -0.189422
    27  H    0.096113
    28  H    0.084274
    29  C   -0.917825
    30  C    0.285133
    31  C    0.702566
    32  C   -0.269743
    33  H    0.063769
    34  C   -0.290957
    35  H    0.062344
    36  C   -0.209609
    37  H    0.102177
    38  H    0.093905
    39  C   -0.753177
    40  C    0.459095
    41  C    0.531784
    42  C   -0.324695
    43  H    0.050049
    44  C   -0.406607
    45  H    0.055279
    46  C   -0.130931
    47  H    0.089375
    48  H    0.087250
    49  C   -0.920118
    50  C    0.521796
    51  C    0.569420
    52  C   -0.415303
    53  H    0.085251
    54  C   -0.447155
    55  H    0.043177
    56  C   -0.084197
    57  H    0.097207
    58  H    0.069296
    59  C   -1.123928
    60  C    0.583167
    61  C    0.475781
    62  C   -0.275399
    63  H    0.082746
    64  C   -0.365942
    65  H    0.095213
    66  C   -0.126580
    67  H    0.098255
    68  H    0.097157
    69  C   -0.334806
    70  H    0.144119
    71  H    0.153527
    72  H    0.145552
    73  C   -0.289093
    74  H    0.144936
    75  H    0.151442
    76  H    0.135005
    77  C   -0.311918
    78  H    0.137708
    79  H    0.148600
    80  H    0.143036
    81  C   -0.316783
    82  H    0.138115
    83  H    0.149712
    84  H    0.150313
    85  C   -0.354094
    86  H    0.144234
    87  H    0.155638
    88  H    0.147024
    89  C   -0.318206
    90  H    0.139436
    91  H    0.149236
    92  H    0.148530
 Sum of Mulliken charges =   0.00000

 Dipole moment (field-independent basis, Debye):
    X=             13.1946    Y=             17.8788    Z=              0.3950  Tot=             22.2240
 Quadrupole moment (field-independent basis, Debye-Ang):
   XX=           -365.6926   YY=           -383.0367   ZZ=           -324.3917
   XY=            -31.8201   XZ=              0.0404   YZ=             -0.3584

 1\1\GINC-NEQC17\SP\RPBEPBE\Gen\C42H42Cl4P2Pt1Sn1\DIEGO\06-Sep-2018\0\\
 #PBEPBE/gen scf=(maxcycle=1000,conver=4) NMR=GIAO Scrf=(solvent=Chloro
 form)\\estrutura 11\\0,1\Pt,0,-0.145059,-0.890844,-0.105081\Sn,0,-2.56
 9819,-2.030327,-0.073082\Cl,0,-4.673634,-0.814555,0.066876\Cl,0,-2.936
 108,-3.441869,1.864275\Cl,0,-3.141162,-3.488252,-1.913991\Cl,0,0.33844
 1,-3.276895,-0.171219\P,0,-1.006196,1.268131,-0.073941\P,0,2.210581,-0
 .413529,0.075377\C,0,0.103475,2.716845,-0.346775\C,0,0.877607,3.220195
 ,0.714002\C,0,0.18357,3.355648,-1.592915\C,0,1.700463,4.32945,0.52807\

 Normal termination of Gaussian 09 at Thu Sep  6 03:18:20 2018.
