 Gaussian 09, Revision D.01,
 Gaussian 09:  EM64L-G09RevD.01 24-Apr-2013

 ----------------------------------------------------------------------
 #PBEPBE/gen scf=(maxcycle=500,conver=4) NMR=GIAO Scrf=(solvent=Dichlor
 omethane)
 ----------------------------------------------------------------------

 -------------
 estrutura 100
 -------------
 Symbolic Z-matrix:
 Charge =  0 Multiplicity = 1

                         Standard orientation:
 ---------------------------------------------------------------------
 Center     Atomic      Atomic             Coordinates (Angstroms)
 Number     Number       Type             X           Y           Z
 ---------------------------------------------------------------------
      1         78           0       -0.008693   -0.551606   -0.071274
      2         15           0       -2.499513   -0.496289   -0.012805
      3         15           0        0.442027    1.722027   -0.128858
      4          6           0       -3.070128   -1.003299    1.666969
      5          6           0       -4.442505   -1.155070    1.950089
      6          6           0       -2.137838   -1.184849    2.699864
      7          6           0       -4.861674   -1.512102    3.233169
      8          1           0       -5.195587   -0.986564    1.174418
      9          6           0       -2.562926   -1.524711    3.988993
     10          1           0       -1.071936   -1.048128    2.496368
     11          6           0       -3.925041   -1.698090    4.254754
     12          1           0       -5.926994   -1.640791    3.435366
     13          1           0       -1.825881   -1.652176    4.783630
     14          1           0       -4.257052   -1.970106    5.259829
     15          6           0       -3.162061   -1.739778   -1.211444
     16          6           0       -2.839182   -1.598001   -2.574076
     17          6           0       -3.934180   -2.843632   -0.815320
     18          6           0       -3.315913   -2.507605   -3.520522
     19          1           0       -2.197664   -0.781064   -2.908286
     20          6           0       -4.401977   -3.759623   -1.763449
     21          1           0       -4.158334   -3.012976    0.238085
     22          6           0       -4.105141   -3.590099   -3.118257
     23          1           0       -3.060216   -2.372724   -4.574386
     24          1           0       -4.997084   -4.615292   -1.433989
     25          1           0       -4.474349   -4.305710   -3.856754
     26          6           0       -3.552407    1.006317   -0.304570
     27          6           0       -3.770619    1.895510    0.764484
     28          6           0       -4.157882    1.281398   -1.542856
     29          6           0       -4.586633    3.017506    0.602463
     30          1           0       -3.319073    1.706720    1.739527
     31          6           0       -4.970899    2.407348   -1.702451
     32          1           0       -4.020695    0.610268   -2.390276
     33          6           0       -5.191482    3.277509   -0.631056
     34          1           0       -4.750425    3.688365    1.449630
     35          1           0       -5.439785    2.597406   -2.671105
     36          1           0       -5.835923    4.150585   -0.754809
     37          6           0        2.184585    2.312294   -0.321381
     38          6           0        2.806966    3.164951    0.603312
     39          6           0        2.866530    1.959202   -1.498899
     40          6           0        4.093044    3.655021    0.351688
     41          1           0        2.298261    3.453087    1.523934
     42          6           0        4.150653    2.447136   -1.744422
     43          1           0        2.397205    1.298808   -2.231556
     44          6           0        4.767355    3.297579   -0.819017
     45          1           0        4.569294    4.315001    1.081539
     46          1           0        4.671539    2.157152   -2.660623
     47          1           0        5.773200    3.679495   -1.011298
     48          6           0       -0.126683    2.495628    1.442100
     49          6           0       -1.007830    3.585289    1.513310
     50          6           0        0.364364    1.933659    2.637472
     51          6           0       -1.379811    4.111712    2.755912
     52          1           0       -1.426012    4.023758    0.607205
     53          6           0       -0.008100    2.463963    3.874011
     54          1           0        1.051491    1.084602    2.602359
     55          6           0       -0.881892    3.555823    3.936564
     56          1           0       -2.068727    4.959274    2.794817
     57          1           0        0.384798    2.020477    4.791860
     58          1           0       -1.175256    3.969301    4.904585
     59          6           0       -0.303818    2.605533   -1.568574
     60          6           0       -0.214800    4.006680   -1.679629
     61          6           0       -0.815425    1.873232   -2.649366
     62          6           0       -0.674703    4.654773   -2.827580
     63          1           0        0.236599    4.599916   -0.881869
     64          6           0       -1.260997    2.522745   -3.805647
     65          1           0       -0.837022    0.783471   -2.597525
     66          6           0       -1.202394    3.915098   -3.892555
     67          1           0       -0.604055    5.743947   -2.896864
     68          1           0       -1.649617    1.934246   -4.640161
     69          1           0       -1.551823    4.425037   -4.794042
     70         50           0        2.467845   -1.499725    0.236321
     71         35           0       -0.301479   -3.116045    0.000657
     72         35           0        3.938950   -0.131425    1.947137
     73         35           0        3.854289   -1.529926   -1.993885
     74          6           0        3.097003   -3.447998    0.981124
     75          1           0        2.614251   -3.628118    1.951987
     76          1           0        2.801479   -4.222982    0.262583
     77          1           0        4.188512   -3.416232    1.095974
 ---------------------------------------------------------------------

 SCF Done:  E(RPBE-PBE) =  -32906.1360829     A.U. after   10 cycles

      1  Pt   Isotropic =  3092.0259   Anisotropy =  1597.7055

      2  P    Isotropic =   268.5051   Anisotropy =    60.4978

      3  P    Isotropic =   249.8444   Anisotropy =   118.1510

      4  C    Isotropic =    42.9756   Anisotropy =   171.3268

      5  C    Isotropic =    44.6388   Anisotropy =   193.2690

      6  C    Isotropic =    34.3512   Anisotropy =   175.5202

      7  C    Isotropic =    54.3471   Anisotropy =   181.9995

      8  H    Isotropic =    24.4960   Anisotropy =    12.4548

      9  C    Isotropic =    53.0123   Anisotropy =   182.8748

     10  H    Isotropic =    22.8071   Anisotropy =    15.9963

     11  C    Isotropic =    45.5005   Anisotropy =   173.5028

     12  H    Isotropic =    24.6885   Anisotropy =     4.8203

     13  H    Isotropic =    23.9109   Anisotropy =     9.1706

     14  H    Isotropic =    24.4529   Anisotropy =     3.3475

     15  C    Isotropic =    46.4603   Anisotropy =   181.1274

     16  C    Isotropic =    47.6856   Anisotropy =   183.2826

     17  C    Isotropic =    48.0470   Anisotropy =   193.3484

     18  C    Isotropic =    48.9928   Anisotropy =   179.1632

     19  H    Isotropic =    22.6601   Anisotropy =    11.8564

     20  C    Isotropic =    48.0361   Anisotropy =   168.1738

     21  H    Isotropic =    23.8708   Anisotropy =    12.2616

     22  C    Isotropic =    42.0126   Anisotropy =   165.9684

     23  H    Isotropic =    23.2562   Anisotropy =     7.3641

     24  H    Isotropic =    24.1208   Anisotropy =     5.9360

     25  H    Isotropic =    23.9059   Anisotropy =     2.7938

     26  C    Isotropic =    36.8267   Anisotropy =   177.9423

     27  C    Isotropic =    43.2576   Anisotropy =   194.4231

     28  C    Isotropic =    45.0289   Anisotropy =   192.4137

     29  C    Isotropic =    52.0156   Anisotropy =   183.9472

     30  H    Isotropic =    25.8232   Anisotropy =     9.3137

     31  C    Isotropic =    47.7285   Anisotropy =   180.6480

     32  H    Isotropic =    23.7158   Anisotropy =    10.9241

     33  C    Isotropic =    53.8369   Anisotropy =   203.6532

     34  H    Isotropic =    24.2913   Anisotropy =     7.0057

     35  H    Isotropic =    24.1545   Anisotropy =     6.6421

     36  H    Isotropic =    23.9620   Anisotropy =     3.3199

     37  C    Isotropic =    38.8326   Anisotropy =   171.7713

     38  C    Isotropic =    54.9905   Anisotropy =   198.2604

     39  C    Isotropic =    49.0268   Anisotropy =   195.0446

     40  C    Isotropic =    48.4127   Anisotropy =   167.4534

     41  H    Isotropic =    24.3263   Anisotropy =    12.6636

     42  C    Isotropic =    39.4638   Anisotropy =   176.0376

     43  H    Isotropic =    23.6083   Anisotropy =     9.7185

     44  C    Isotropic =    46.3451   Anisotropy =   193.0148

     45  H    Isotropic =    23.5958   Anisotropy =     7.0351

     46  H    Isotropic =    22.8981   Anisotropy =     8.7853

     47  H    Isotropic =    22.7753   Anisotropy =     4.8453

     48  C    Isotropic =    47.4428   Anisotropy =   150.9384

     49  C    Isotropic =    49.9040   Anisotropy =   191.5523

     50  C    Isotropic =    41.4012   Anisotropy =   180.1116

     51  C    Isotropic =    54.5926   Anisotropy =   185.4932

     52  H    Isotropic =    24.1390   Anisotropy =     8.9371

     53  C    Isotropic =    44.3039   Anisotropy =   174.5276

     54  H    Isotropic =    22.7141   Anisotropy =    11.0119

     55  C    Isotropic =    53.5792   Anisotropy =   201.1560

     56  H    Isotropic =    23.8371   Anisotropy =     5.4908

     57  H    Isotropic =    23.1834   Anisotropy =     8.0840

     58  H    Isotropic =    23.3122   Anisotropy =     4.0048

     59  C    Isotropic =    50.4244   Anisotropy =   171.5156

     60  C    Isotropic =    50.9717   Anisotropy =   197.5619

     61  C    Isotropic =    45.5947   Anisotropy =   178.7564

     62  C    Isotropic =    45.5878   Anisotropy =   169.1132

     63  H    Isotropic =    24.2973   Anisotropy =    11.9151

     64  C    Isotropic =    45.8974   Anisotropy =   178.1386

     65  H    Isotropic =    22.1082   Anisotropy =    14.3604

     66  C    Isotropic =    41.1193   Anisotropy =   171.5095

     67  H    Isotropic =    23.8686   Anisotropy =     6.0537

     68  H    Isotropic =    22.9784   Anisotropy =     8.8126

     69  H    Isotropic =    23.4137   Anisotropy =     4.4418

     70  Sn   Isotropic =  1880.3074   Anisotropy =   589.2677

     71  Br   Isotropic =  2603.9934   Anisotropy =  1186.8018

     72  Br   Isotropic =  2350.3942   Anisotropy =   617.6754

     73  Br   Isotropic =  2346.6507   Anisotropy =   652.2389

     74  C    Isotropic =   163.8011   Anisotropy =    31.3846

     75  H    Isotropic =    30.3559   Anisotropy =    11.3838

     76  H    Isotropic =    30.0598   Anisotropy =    11.1586

     77  H    Isotropic =    30.6818   Anisotropy =    12.5632

 The electronic state is 1-A.
 Alpha  occ. eigenvalues -- ********************-478.59117-478.58767-478.58325
 Alpha  occ. eigenvalues -- -427.53934-414.86970-414.86953-414.86682-149.63764
 Alpha  occ. eigenvalues -- -141.91596-141.91585-141.91453 -99.91988 -92.07798
 Alpha  occ. eigenvalues --  -92.07781 -92.07367 -79.03713 -79.03605 -79.03380
 Alpha  occ. eigenvalues --  -79.03367 -79.03294 -76.32569 -76.31579 -61.50963
 Alpha  occ. eigenvalues --  -61.50616 -61.50150 -55.69387 -55.69185 -55.69170
 Alpha  occ. eigenvalues --  -55.69033 -55.68846 -55.68820 -55.68575 -55.68376
 Alpha  occ. eigenvalues --  -55.68359 -28.80143 -25.14857 -25.14824 -25.14409
 Alpha  occ. eigenvalues --  -20.83455 -17.69765 -17.69761 -17.69490 -17.69466
 Alpha  occ. eigenvalues --  -17.69377 -17.40202 -17.40172 -17.39306 -11.58654
 Alpha  occ. eigenvalues --  -11.58262 -11.57809 -11.57777 -11.57630  -9.92938
 Alpha  occ. eigenvalues --   -9.92873  -9.92577  -9.92552  -9.92433  -9.92179
 Alpha  occ. eigenvalues --   -9.91565  -9.91520  -9.91370  -9.91360  -9.91317
 Alpha  occ. eigenvalues --   -9.91187  -9.91172  -9.91044  -9.91001  -9.90954
 Alpha  occ. eigenvalues --   -9.90940  -9.90933  -9.90925  -9.90896  -9.90888
 Alpha  occ. eigenvalues --   -9.90867  -9.90812  -9.90804  -9.90716  -9.90653
 Alpha  occ. eigenvalues --   -9.90642  -9.90626  -9.90570  -9.90565  -9.90531
 Alpha  occ. eigenvalues --   -9.90531  -9.90508  -9.90223  -9.90185  -9.90133
 Alpha  occ. eigenvalues --   -9.87716  -8.33818  -8.33474  -8.32993  -6.35457
 Alpha  occ. eigenvalues --   -6.34485  -6.24528  -6.24165  -6.23938  -6.23897
 Alpha  occ. eigenvalues --   -6.23701  -6.23618  -6.23549  -6.23114  -6.23070
 Alpha  occ. eigenvalues --   -4.58002  -4.57974  -4.57741  -4.57048  -4.57030
 Alpha  occ. eigenvalues --   -4.56708  -4.48836  -3.22426  -3.22374  -3.21611
 Alpha  occ. eigenvalues --   -3.13512  -3.13502  -3.13040  -3.12769  -3.12604
 Alpha  occ. eigenvalues --   -3.12578  -3.12510  -2.86437  -2.45508  -2.45360
 Alpha  occ. eigenvalues --   -2.45332  -2.45150  -2.45021  -2.44971  -2.44895
 Alpha  occ. eigenvalues --   -2.44895  -2.44676  -2.44565  -2.44564  -2.44533
 Alpha  occ. eigenvalues --   -2.44504  -2.44071  -2.44069  -1.81541  -1.81167
 Alpha  occ. eigenvalues --   -1.78831  -1.01501  -1.01375  -1.00864  -1.00767
 Alpha  occ. eigenvalues --   -1.00738  -0.80278  -0.80007  -0.79496  -0.79170
 Alpha  occ. eigenvalues --   -0.79015  -0.78848  -0.72214  -0.71897  -0.69436
 Alpha  occ. eigenvalues --   -0.69407  -0.69185  -0.69076  -0.69021  -0.68795
 Alpha  occ. eigenvalues --   -0.68534  -0.68496  -0.68439  -0.68354  -0.67129
 Alpha  occ. eigenvalues --   -0.66268  -0.65914  -0.61306  -0.61071  -0.60918
 Alpha  occ. eigenvalues --   -0.56564  -0.56314  -0.56255  -0.55955  -0.55620
 Alpha  occ. eigenvalues --   -0.55419  -0.55087  -0.54996  -0.54926  -0.54834
 Alpha  occ. eigenvalues --   -0.52264  -0.51967  -0.48138  -0.47819  -0.47717
 Alpha  occ. eigenvalues --   -0.47698  -0.46112  -0.45926  -0.42626  -0.42341
 Alpha  occ. eigenvalues --   -0.42325  -0.42131  -0.41773  -0.41594  -0.41384
 Alpha  occ. eigenvalues --   -0.41218  -0.41059  -0.40896  -0.40644  -0.40482
 Alpha  occ. eigenvalues --   -0.40075  -0.39139  -0.38846  -0.38681  -0.38567
 Alpha  occ. eigenvalues --   -0.38478  -0.38433  -0.38154  -0.37915  -0.37589
 Alpha  occ. eigenvalues --   -0.37203  -0.36426  -0.35778  -0.35669  -0.35487
 Alpha  occ. eigenvalues --   -0.34972  -0.34663  -0.34328  -0.34064  -0.33856
 Alpha  occ. eigenvalues --   -0.33706  -0.32809  -0.31981  -0.31833  -0.31737
 Alpha  occ. eigenvalues --   -0.31669  -0.31462  -0.31133  -0.31077  -0.30953
 Alpha  occ. eigenvalues --   -0.30415  -0.30283  -0.30003  -0.29593  -0.29262
 Alpha  occ. eigenvalues --   -0.27784  -0.27368  -0.26666  -0.26332  -0.26223
 Alpha  occ. eigenvalues --   -0.25501  -0.25243  -0.25126  -0.24968  -0.24846
 Alpha  occ. eigenvalues --   -0.24704  -0.24605  -0.24414  -0.24208  -0.24041
 Alpha  occ. eigenvalues --   -0.24024  -0.23847  -0.23485  -0.23150  -0.22961
 Alpha  occ. eigenvalues --   -0.22439  -0.22036  -0.21612  -0.20113
 Alpha virt. eigenvalues --   -0.11345  -0.08011  -0.07538  -0.07096  -0.06591
 Alpha virt. eigenvalues --   -0.06463  -0.06310  -0.06169  -0.06067  -0.05776
 Alpha virt. eigenvalues --   -0.05371  -0.05058  -0.04820  -0.04406  -0.03399

 Mulliken charges:
               1
     1  Pt   0.297429
     2  P    1.169296
     3  P    1.064371
     4  C   -0.856842
     5  C    0.410406
     6  C    0.295553
     7  C    0.059867
     8  H    0.099549
     9  C   -0.234976
    10  H    0.088095
    11  C   -0.632118
    12  H    0.143539
    13  H    0.142027
    14  H    0.155345
    15  C   -0.805174
    16  C    0.666126
    17  C    0.213971
    18  C   -0.066999
    19  H    0.067946
    20  C   -0.257896
    21  H    0.100801
    22  C   -0.569097
    23  H    0.143890
    24  H    0.146332
    25  H    0.154894
    26  C   -0.980450
    27  C    0.543216
    28  C    0.273467
    29  C   -0.042347
    30  H    0.074355
    31  C   -0.169945
    32  H    0.076611
    33  C   -0.573346
    34  H    0.125921
    35  H    0.135436
    36  H    0.146851
    37  C   -1.087908
    38  C    0.308143
    39  C    0.474473
    40  C   -0.133619
    41  H    0.088653
    42  C   -0.042222
    43  H    0.111938
    44  C   -0.512405
    45  H    0.141103
    46  H    0.138756
    47  H    0.151793
    48  C   -0.741059
    49  C    0.441254
    50  C    0.328985
    51  C   -0.178630
    52  H    0.063122
    53  C   -0.057878
    54  H    0.073686
    55  C   -0.531396
    56  H    0.130086
    57  H    0.138514
    58  H    0.151333
    59  C   -0.749108
    60  C    0.160467
    61  C    0.515428
    62  C    0.053034
    63  H    0.096017
    64  C   -0.263288
    65  H    0.054351
    66  C   -0.579791
    67  H    0.144838
    68  H    0.127272
    69  H    0.152367
    70  Sn  -0.093884
    71  Br  -0.270921
    72  Br  -0.241933
    73  Br  -0.205610
    74  C   -0.353588
    75  H    0.126061
    76  H    0.135742
    77  H    0.129721
 Sum of Mulliken charges =   0.00000

 Dipole moment (field-independent basis, Debye):
    X=            -13.4873    Y=              9.6931    Z=              0.4926  Tot=             16.6164
 Quadrupole moment (field-independent basis, Debye-Ang):
   XX=           -354.6864   YY=           -333.2207   ZZ=           -317.4990
   XY=             10.2113   XZ=              0.4116   YZ=             -4.1946

 Normal termination of Gaussian 09 at Mon Aug 26 20:45:16 2019.
