 Gaussian 09, Revision A.02,
 Gaussian 09:  EM64L-G09RevA.02 11-Jun-2009

 ----------------------------------------------------------------------
 #PBEPBE/gen scf=(maxcycle=500,conver=4) NMR=GIAO Scrf=(solvent=Dichlor
 omethane)
 ----------------------------------------------------------------------

 ------------
 estrutura 56
 ------------
 Symbolic Z-matrix:
 Charge =  0 Multiplicity = 1

                         Standard orientation:
 ---------------------------------------------------------------------
 Center     Atomic      Atomic             Coordinates (Angstroms)
 Number     Number       Type             X           Y           Z
 ---------------------------------------------------------------------
      1         15           0       -2.076826    0.924172   -0.086106
      2         15           0        2.339256   -0.946243   -0.215649
      3          6           0       -3.475007   -0.221378   -0.086433
      4          6           0       -4.148410   -0.137315    1.086231
      5          6           0       -3.612368    0.901155    2.019082
      6          6           0       -2.547090    1.583142    1.529877
      7          6           0       -5.313088   -1.000468    1.464238
      8          6           0       -4.232975    1.133363    3.364333
      9          6           0        2.738923   -1.680930   -1.817617
     10          6           0        3.798217   -1.041229   -2.372206
     11          6           0        4.382694    0.029487   -1.506551
     12          6           0        3.747444    0.184802   -0.320589
     13          6           0        4.369634   -1.348758   -3.723724
     14          6           0        5.560754    0.840210   -1.955591
     15          1           0       -3.706658   -0.908067   -0.900155
     16          1           0       -2.012125    2.379181    2.046132
     17          1           0       -6.182898   -0.393291    1.762952
     18          1           0       -5.609748   -1.656934    0.635518
     19          1           0       -5.053532   -1.637174    2.326815
     20          1           0       -4.227555    0.208790    3.965501
     21          1           0       -3.699045    1.914425    3.922845
     22          1           0       -5.288762    1.437694    3.264027
     23          1           0        2.178445   -2.495145   -2.275412
     24          1           0        4.029144    0.895400    0.456266
     25          1           0        5.434592   -1.624544   -3.649897
     26          1           0        3.829568   -2.172954   -4.209278
     27          1           0        4.318107   -0.464350   -4.381387
     28          1           0        6.416328    0.194435   -2.213189
     29          1           0        5.309764    1.415454   -2.863194
     30          1           0        5.877568    1.549147   -1.178585
     31         78           0        0.134691   -0.015515   -0.115924
     32         50           0        1.183840    2.395211    0.322086
     33         17           0       -0.247144    4.280061    0.875211
     34         17           0        2.461707    3.445336   -1.439352
     35         17           0        2.692819    2.568603    2.215006
     36          6           0        2.730034   -2.139374    1.145529
     37          1           0        2.113166   -3.033893    0.968547
     38          1           0        3.782607   -2.431871    0.997975
     39          6           0       -2.315573    2.194978   -1.418926
     40          1           0       -2.010221    1.708956   -2.360843
     41          1           0       -1.559267    2.961753   -1.196835
     42         50           0       -0.914048   -2.449434   -0.434802
     43         17           0       -2.212711   -3.387009    1.374627
     44         17           0        0.534765   -4.363528   -0.831280
     45         17           0       -2.361920   -2.782539   -2.353977
     46          6           0       -3.701755    2.849727   -1.540163
     47          1           0       -3.544254    3.833909   -2.015700
     48          1           0       -4.102905    3.069994   -0.534814
     49          6           0       -4.738002    2.073348   -2.362289
     50          1           0       -4.319569    1.861107   -3.363573
     51          1           0       -4.928208    1.092456   -1.897180
     52          6           0       -6.059187    2.832107   -2.507339
     53          1           0       -5.913188    3.795842   -3.023426
     54          1           0       -6.795837    2.249843   -3.084664
     55          1           0       -6.505463    3.050855   -1.522188
     56          6           0        2.493980   -1.569660    2.548993
     57          1           0        3.074693   -0.640392    2.685344
     58          1           0        1.433148   -1.281371    2.651462
     59          6           0        2.861554   -2.568124    3.653240
     60          1           0        3.918944   -2.865145    3.535770
     61          1           0        2.269961   -3.490880    3.516692
     62          6           0        2.636903   -2.014980    5.061073
     63          1           0        2.905462   -2.756874    5.829707
     64          1           0        3.246690   -1.113199    5.239192
     65          1           0        1.581259   -1.737104    5.218773
 ---------------------------------------------------------------------

 SCF Done:  E(RPBE-PBE) =  -33295.4332317     A.U. after    9 cycles

  1  P    Isotropic =   265.8938   Anisotropy =    68.4601

  2  P    Isotropic =   267.3936   Anisotropy =    61.2589

  3  C    Isotropic =    37.6547   Anisotropy =   123.0847

  4  C    Isotropic =    26.1017   Anisotropy =   170.2969

  5  C    Isotropic =    28.8643   Anisotropy =   180.1375

  6  C    Isotropic =    54.6250   Anisotropy =   106.0627

  7  C    Isotropic =   162.9952   Anisotropy =    32.2835

  8  C    Isotropic =   164.1058   Anisotropy =    33.0226

  9  C    Isotropic =    46.1744   Anisotropy =   102.6735

 10  C    Isotropic =    23.5363   Anisotropy =   174.5750

 11  C    Isotropic =    23.7143   Anisotropy =   161.3139

 12  C    Isotropic =    41.5118   Anisotropy =   136.2715

 13  C    Isotropic =   162.2307   Anisotropy =    35.4641

 14  C    Isotropic =   163.7412   Anisotropy =    29.4801

 15  H    Isotropic =    23.4530   Anisotropy =     8.6045

 16  H    Isotropic =    24.5417   Anisotropy =     9.2121

 17  H    Isotropic =    29.4285   Anisotropy =     9.2879

 18  H    Isotropic =    29.2711   Anisotropy =     5.5042

 19  H    Isotropic =    29.1612   Anisotropy =     6.4314

 20  H    Isotropic =    29.2709   Anisotropy =     7.4311

 21  H    Isotropic =    29.1206   Anisotropy =     6.6170

 22  H    Isotropic =    29.4378   Anisotropy =     9.1171

 23  H    Isotropic =    24.0674   Anisotropy =    11.0506

 24  H    Isotropic =    23.7118   Anisotropy =     8.6820

 25  H    Isotropic =    29.2307   Anisotropy =     9.6100

 26  H    Isotropic =    29.1137   Anisotropy =     6.7395

 27  H    Isotropic =    29.1677   Anisotropy =     7.6818

 28  H    Isotropic =    29.2132   Anisotropy =    10.0203

 29  H    Isotropic =    29.1917   Anisotropy =     6.8662

 30  H    Isotropic =    29.2294   Anisotropy =     5.8074

 31  Pt   Isotropic =  3645.4487   Anisotropy =  1394.6769

 32  Sn   Isotropic =  2122.8566   Anisotropy =   737.9800

 33  Cl   Isotropic =   737.5666   Anisotropy =   296.1960

 34  Cl   Isotropic =   750.6393   Anisotropy =   324.4107

 35  Cl   Isotropic =   719.8157   Anisotropy =   337.8929

 36  C    Isotropic =   142.1667   Anisotropy =    36.5864

 37  H    Isotropic =    28.3352   Anisotropy =     8.9592

 38  H    Isotropic =    29.8761   Anisotropy =    10.0804

 39  C    Isotropic =   142.4761   Anisotropy =    56.9608

 40  H    Isotropic =    29.0675   Anisotropy =     7.5582

 41  H    Isotropic =    28.0121   Anisotropy =    11.2882

 42  Sn   Isotropic =  2124.8492   Anisotropy =   743.7066

 43  Cl   Isotropic =   754.9088   Anisotropy =   320.3079

 44  Cl   Isotropic =   729.2572   Anisotropy =   305.6641

 45  Cl   Isotropic =   721.7377   Anisotropy =   343.4144

 46  C    Isotropic =   149.2830   Anisotropy =    31.9595

 47  H    Isotropic =    29.8764   Anisotropy =     9.7249

 48  H    Isotropic =    30.5011   Anisotropy =     6.5109

 49  C    Isotropic =   151.3655   Anisotropy =    23.6364

 50  H    Isotropic =    30.2014   Anisotropy =     6.2276

 51  H    Isotropic =    30.1272   Anisotropy =     9.6605

 52  C    Isotropic =   167.2972   Anisotropy =    32.8774

 53  H    Isotropic =    30.7048   Anisotropy =    10.3808

 54  H    Isotropic =    30.2810   Anisotropy =    11.5833

 55  H    Isotropic =    30.9073   Anisotropy =     7.7874

 56  C    Isotropic =   145.0478   Anisotropy =    37.5350

 57  H    Isotropic =    29.6523   Anisotropy =     6.0165

 58  H    Isotropic =    30.0785   Anisotropy =    11.3086

 59  C    Isotropic =   151.3323   Anisotropy =    30.3118

 60  H    Isotropic =    29.9496   Anisotropy =     8.6957

 61  H    Isotropic =    30.0453   Anisotropy =     5.9512

 62  C    Isotropic =   165.5567   Anisotropy =    32.3222

 63  H    Isotropic =    30.1086   Anisotropy =    12.7485

 64  H    Isotropic =    30.5652   Anisotropy =     8.1019

 65  H    Isotropic =    30.7279   Anisotropy =     5.8659

 The electronic state is 1-A.
 Alpha  occ. eigenvalues -- ******************************-427.55838-414.88891
 Alpha  occ. eigenvalues -- -414.88826-414.88567-149.66959-149.66934-141.94770
 Alpha  occ. eigenvalues -- -141.94763-141.94745-141.94737-141.94701-141.94675
 Alpha  occ. eigenvalues -- -100.56719-100.56686-100.56659-100.56642-100.56631
 Alpha  occ. eigenvalues -- -100.56575 -99.93885 -92.09742 -92.09651 -92.09236
 Alpha  occ. eigenvalues --  -79.05625 -79.05526 -79.05289 -79.05245 -79.05174
 Alpha  occ. eigenvalues --  -76.32012 -76.31949 -28.83348 -28.83329 -25.17982
 Alpha  occ. eigenvalues --  -25.17965 -25.17961 -25.17940 -25.17763 -25.17743
 Alpha  occ. eigenvalues --  -20.85332 -17.72865 -17.72864 -17.72846 -17.72845
 Alpha  occ. eigenvalues --  -17.72730 -17.72719 -17.72712 -17.72697 -17.72681
 Alpha  occ. eigenvalues --  -17.72661 -17.42176 -17.41996 -17.41137 -11.60547
 Alpha  occ. eigenvalues --  -11.60196 -11.59698 -11.59622 -11.59461  -9.93193
 Alpha  occ. eigenvalues --   -9.93191  -9.92967  -9.92952  -9.92142  -9.91881
 Alpha  occ. eigenvalues --   -9.90854  -9.90847  -9.90769  -9.90631  -9.89974
 Alpha  occ. eigenvalues --   -9.89950  -9.89739  -9.89732  -9.89575  -9.89528
 Alpha  occ. eigenvalues --   -9.89083  -9.88896  -9.87826  -9.87796  -9.14572
 Alpha  occ. eigenvalues --   -9.14546  -9.14530  -9.14502  -9.14487  -9.14440
 Alpha  occ. eigenvalues --   -6.98369  -6.98334  -6.98324  -6.98309  -6.98292
 Alpha  occ. eigenvalues --   -6.98226  -6.97762  -6.97744  -6.97738  -6.97724
 Alpha  occ. eigenvalues --   -6.97719  -6.97699  -6.97690  -6.97676  -6.97662
 Alpha  occ. eigenvalues --   -6.97649  -6.97631  -6.97619  -6.35064  -6.35019
 Alpha  occ. eigenvalues --   -4.57584  -4.57542  -4.57541  -4.57488  -4.57378
 Alpha  occ. eigenvalues --   -4.57336  -4.52071  -4.52059  -3.25511  -3.25503
 Alpha  occ. eigenvalues --   -3.25469  -3.25453  -3.25139  -3.25125  -3.15433
 Alpha  occ. eigenvalues --   -3.15408  -3.14919  -3.14669  -3.14478  -3.14410
 Alpha  occ. eigenvalues --   -3.14342  -2.88303  -1.83469  -1.83060  -1.80611
 Alpha  occ. eigenvalues --   -1.04560  -1.04554  -1.04545  -1.04536  -1.04188
 Alpha  occ. eigenvalues --   -1.04174  -1.04156  -1.04143  -1.04116  -1.04063
 Alpha  occ. eigenvalues --   -0.79715  -0.79690  -0.73913  -0.73725  -0.73390
 Alpha  occ. eigenvalues --   -0.73362  -0.71754  -0.71738  -0.71686  -0.71631
 Alpha  occ. eigenvalues --   -0.70019  -0.69995  -0.69329  -0.69173  -0.66391
 Alpha  occ. eigenvalues --   -0.66281  -0.61815  -0.61805  -0.60151  -0.59881
 Alpha  occ. eigenvalues --   -0.56264  -0.55849  -0.52749  -0.52742  -0.51285
 Alpha  occ. eigenvalues --   -0.50760  -0.46891  -0.46872  -0.44690  -0.43819
 Alpha  occ. eigenvalues --   -0.43500  -0.43263  -0.42870  -0.42498  -0.40832
 Alpha  occ. eigenvalues --   -0.40514  -0.40274  -0.40083  -0.39804  -0.39097
 Alpha  occ. eigenvalues --   -0.38628  -0.38472  -0.37871  -0.36923  -0.36857
 Alpha  occ. eigenvalues --   -0.36667  -0.36652  -0.36459  -0.36168  -0.36069
 Alpha  occ. eigenvalues --   -0.34809  -0.34548  -0.34177  -0.34081  -0.33750
 Alpha  occ. eigenvalues --   -0.33701  -0.33511  -0.33425  -0.32576  -0.32345
 Alpha  occ. eigenvalues --   -0.32223  -0.32101  -0.31969  -0.31730  -0.31137
 Alpha  occ. eigenvalues --   -0.30745  -0.30279  -0.29854  -0.29728  -0.29325
 Alpha  occ. eigenvalues --   -0.29258  -0.28908  -0.28721  -0.28665  -0.28580
 Alpha  occ. eigenvalues --   -0.28511  -0.28330  -0.28290  -0.28220  -0.28111
 Alpha  occ. eigenvalues --   -0.27374  -0.27315  -0.27216  -0.27020  -0.26915
 Alpha  occ. eigenvalues --   -0.26845  -0.26737  -0.24604  -0.23518  -0.23412
 Alpha  occ. eigenvalues --   -0.22046  -0.21716
 Alpha virt. eigenvalues --   -0.13174  -0.10278  -0.09254  -0.07131  -0.05572
 Alpha virt. eigenvalues --   -0.04678  -0.04471  -0.03872  -0.02848  -0.02022
 Alpha virt. eigenvalues --   -0.01722  -0.01101  -0.00800  -0.00227  -0.00175

 Mulliken atomic charges:
              1
     1  P   -0.790995
     2  P   -0.372879
     3  C    0.211326
     4  C   -0.244366
     5  C   -0.442476
     6  C    0.248954
     7  C   -0.045723
     8  C   -0.114485
     9  C    0.202690
    10  C   -0.566439
    11  C   -0.377103
    12  C    0.106649
    13  C   -0.143167
    14  C   -0.103749
    15  H    0.098182
    16  H    0.103619
    17  H    0.137318
    18  H    0.117489
    19  H    0.122497
    20  H    0.136009
    21  H    0.130121
    22  H    0.138657
    23  H    0.108606
    24  H    0.105127
    25  H    0.140412
    26  H    0.131678
    27  H    0.140915
    28  H    0.141916
    29  H    0.132190
    30  H    0.124933
    31  Pt   0.711694
    32  Sn   0.273657
    33  Cl  -0.164358
    34  Cl  -0.196850
    35  Cl  -0.239409
    36  C   -0.154231
    37  H    0.068520
    38  H    0.094655
    39  C   -0.041870
    40  H    0.074021
    41  H    0.080917
    42  Sn   0.245887
    43  Cl  -0.199060
    44  Cl  -0.153160
    45  Cl  -0.227326
    46  C   -0.190588
    47  H    0.112846
    48  H    0.063683
    49  C   -0.166392
    50  H    0.106885
    51  H    0.081296
    52  C   -0.327721
    53  H    0.144551
    54  H    0.144028
    55  H    0.133904
    56  C   -0.058641
    57  H    0.060474
    58  H    0.031231
    59  C   -0.232273
    60  H    0.123107
    61  H    0.106085
    62  C   -0.294001
    63  H    0.148374
    64  H    0.133553
    65  H    0.128605
 Sum of Mulliken atomic charges =   0.00000

 Dipole moment (field-independent basis, Debye):
    X=             -0.4161    Y=              0.2056    Z=             -0.5320  Tot=              0.7060
 Quadrupole moment (field-independent basis, Debye-Ang):
   XX=           -267.1540   YY=           -373.4114   ZZ=           -302.0652
   XY=            -35.4028   XZ=            -21.3216   YZ=            -11.6671

 Normal termination of Gaussian 09 at Sat Jun 15 12:01:35 2019.
