 Gaussian 09, Revision D.01,
 Gaussian 09:  EM64L-G09RevD.01 24-Apr-2013

 ----------------------------------------------------------------------
 #PBEPBE/gen scf=(maxcycle=1000,conver=4) NMR=GIAO Scrf=(solvent=Dichlo
 romethane)
 ----------------------------------------------------------------------

 ------------
 estrutura 10
 ------------
 Symbolic Z-matrix:
 Charge =  0 Multiplicity = 1

                         Standard orientation:
 ---------------------------------------------------------------------
 Center     Atomic      Atomic             Coordinates (Angstroms)
 Number     Number       Type             X           Y           Z
 ---------------------------------------------------------------------
      1         78           0        0.004039   -0.010068   -0.042297
      2         50           0       -1.081844   -2.428383   -0.383304
      3         50           0        1.275462    2.256881   -0.632042
      4         17           0        3.258204    1.910221   -2.004222
      5         17           0        2.119163    3.564606    1.236609
      6         17           0        0.441053    4.092444   -1.972433
      7         17           0        0.232006   -4.451981   -0.700089
      8         17           0       -2.344372   -2.629972   -2.447096
      9         17           0       -2.608570   -3.320709    1.285984
     10          6           0        3.452521    0.117509    1.119175
     11          1           0        3.835272    0.637900    0.227251
     12          1           0        2.950404    0.881804    1.730842
     13          6           0        2.827737   -1.841069   -1.037478
     14          1           0        2.092920   -2.614935   -1.311175
     15          1           0        2.769305   -1.059524   -1.812575
     16          6           0        1.948277   -2.353129    1.776742
     17          1           0        1.568284   -3.236970    1.242004
     18          1           0        2.958667   -2.618022    2.126751
     19          6           0       -3.624868   -0.095212   -0.165887
     20          1           0       -3.423816   -0.620761   -1.112626
     21          1           0       -3.524596   -0.847687    0.630683
     22          6           0       -2.541133    2.393289   -1.274195
     23          1           0       -3.346543    1.989565   -1.907551
     24          1           0       -1.648617    2.439619   -1.910508
     25          6           0       -2.188693    1.801858    1.728140
     26          1           0       -2.049346    2.889024    1.618387
     27          1           0       -1.263902    1.429494    2.197292
     28          6           0        4.625969   -0.481173    1.912258
     29          1           0        5.085998   -1.313020    1.358236
     30          1           0        4.261657   -0.904768    2.860388
     31          6           0        1.027078   -2.034383    2.968342
     32          1           0        0.909833   -2.973169    3.536587
     33          1           0        0.019457   -1.788294    2.593578
     34          6           0        4.237680   -2.446641   -1.010257
     35          1           0        4.338444   -3.154362   -0.170820
     36          1           0        4.981408   -1.649460   -0.844806
     37          6           0       -5.064847    0.437704   -0.206401
     38          1           0       -5.337614    0.889151    0.757972
     39          1           0       -5.160371    1.233327   -0.960823
     40          6           0       -2.886652    3.817843   -0.805649
     41          1           0       -2.737468    4.477921   -1.676117
     42          1           0       -2.141892    4.160138   -0.068456
     43          6           0       -3.370237    1.504583    2.663011
     44          1           0       -4.294181    1.946257    2.261663
     45          1           0       -3.542423    0.416303    2.715110
     46         15           0        2.139397   -1.036900    0.480625
     47         15           0       -2.188511    1.068773    0.004069
     48          6           0       -6.052606   -0.685481   -0.538948
     49          1           0       -7.088085   -0.308986   -0.549416
     50          1           0       -5.841163   -1.121539   -1.529034
     51          1           0       -5.995646   -1.501478    0.200396
     52          6           0       -3.123925    2.047260    4.072645
     53          1           0       -2.981490    3.139946    4.062108
     54          1           0       -3.977257    1.825098    4.731187
     55          1           0       -2.224698    1.597689    4.523277
     56          6           0       -4.301776    4.016655   -0.263455
     57          1           0       -4.534148    3.324427    0.559994
     58          1           0       -4.433324    5.039400    0.118714
     59          1           0       -5.055190    3.855133   -1.049994
     60          6           0        4.558160   -3.167245   -2.323036
     61          1           0        5.585383   -3.562762   -2.317178
     62          1           0        3.870652   -4.012328   -2.490203
     63          1           0        4.465571   -2.485897   -3.183237
     64          6           0        1.494519   -0.931893    3.918929
     65          1           0        1.522983    0.056071    3.433303
     66          1           0        0.808670   -0.852497    4.776275
     67          1           0        2.497945   -1.139248    4.321444
     68          6           0        5.691820    0.577184    2.210293
     69          1           0        5.272495    1.418373    2.786986
     70          1           0        6.519634    0.145745    2.795286
     71          1           0        6.116231    0.991336    1.280638
 ---------------------------------------------------------------------

 SCF Done:  E(RPBE-PBE) =  -33224.1197410     A.U. after    8 cycles

      1  Pt   Isotropic =  3365.6862   Anisotropy =  1823.7932

      2  Sn   Isotropic =  2124.9870   Anisotropy =   766.5029

      3  Sn   Isotropic =  2117.6181   Anisotropy =   765.3051

      4  Cl   Isotropic =   722.5170   Anisotropy =   323.0333

      5  Cl   Isotropic =   739.7448   Anisotropy =   330.1121

      6  Cl   Isotropic =   761.8002   Anisotropy =   269.7405

      7  Cl   Isotropic =   728.8877   Anisotropy =   292.9664

      8  Cl   Isotropic =   736.5280   Anisotropy =   332.2435

      9  Cl   Isotropic =   718.0727   Anisotropy =   348.4558

     10  C    Isotropic =   138.2945   Anisotropy =    38.8303

     11  H    Isotropic =    28.0024   Anisotropy =     8.9070

     12  H    Isotropic =    28.6472   Anisotropy =     8.1690

     13  C    Isotropic =   140.4471   Anisotropy =    46.6050

     14  H    Isotropic =    28.4408   Anisotropy =    10.1152

     15  H    Isotropic =    28.9133   Anisotropy =     7.1945

     16  C    Isotropic =   149.4174   Anisotropy =     9.7454

     17  H    Isotropic =    28.3247   Anisotropy =    10.0310

     18  H    Isotropic =    28.6225   Anisotropy =     9.0550

     19  C    Isotropic =   137.7735   Anisotropy =    40.9365

     20  H    Isotropic =    28.2401   Anisotropy =    11.9538

     21  H    Isotropic =    28.1478   Anisotropy =     9.2151

     22  C    Isotropic =   146.8745   Anisotropy =    28.0560

     23  H    Isotropic =    29.5998   Anisotropy =     6.5075

     24  H    Isotropic =    28.0091   Anisotropy =     8.3219

     25  C    Isotropic =   150.6127   Anisotropy =    49.2923

     26  H    Isotropic =    29.3306   Anisotropy =     3.5241

     27  H    Isotropic =    29.3637   Anisotropy =    12.4711

     28  C    Isotropic =   156.3362   Anisotropy =    21.9436

     29  H    Isotropic =    29.7364   Anisotropy =     5.7689

     30  H    Isotropic =    29.5001   Anisotropy =     5.1719

     31  C    Isotropic =   154.1537   Anisotropy =    13.4047

     32  H    Isotropic =    28.9788   Anisotropy =    11.0690

     33  H    Isotropic =    29.7996   Anisotropy =     9.0495

     34  C    Isotropic =   156.8822   Anisotropy =    19.1732

     35  H    Isotropic =    29.8736   Anisotropy =     5.9478

     36  H    Isotropic =    29.7841   Anisotropy =     5.6864

     37  C    Isotropic =   155.5031   Anisotropy =    20.4863

     38  H    Isotropic =    29.6222   Anisotropy =     5.5522

     39  H    Isotropic =    29.4740   Anisotropy =     6.3295

     40  C    Isotropic =   163.0017   Anisotropy =    20.4564

     41  H    Isotropic =    29.9220   Anisotropy =     8.3608

     42  H    Isotropic =    29.1309   Anisotropy =     5.6591

     43  C    Isotropic =   156.5183   Anisotropy =    17.4103

     44  H    Isotropic =    29.5151   Anisotropy =     6.3332

     45  H    Isotropic =    29.5310   Anisotropy =     5.3306

     46  P    Isotropic =   261.3637   Anisotropy =    88.1048

     47  P    Isotropic =   277.2886   Anisotropy =    58.5202

     48  C    Isotropic =   165.5409   Anisotropy =    31.7331

     49  H    Isotropic =    30.0759   Anisotropy =    13.1433

     50  H    Isotropic =    30.4351   Anisotropy =     7.3111

     51  H    Isotropic =    30.2847   Anisotropy =     7.1007

     52  C    Isotropic =   165.1269   Anisotropy =    34.9387

     53  H    Isotropic =    30.5080   Anisotropy =     9.4248

     54  H    Isotropic =    30.0265   Anisotropy =    12.9548

     55  H    Isotropic =    30.6565   Anisotropy =     6.8984

     56  C    Isotropic =   168.0010   Anisotropy =    22.5828

     57  H    Isotropic =    30.1912   Anisotropy =     4.8779

     58  H    Isotropic =    30.3566   Anisotropy =    12.0475

     59  H    Isotropic =    30.6390   Anisotropy =     9.8633

     60  C    Isotropic =   165.9245   Anisotropy =    33.7759

     61  H    Isotropic =    30.1771   Anisotropy =    13.0630

     62  H    Isotropic =    30.6085   Anisotropy =     7.8971

     63  H    Isotropic =    30.6616   Anisotropy =     7.9563

     64  C    Isotropic =   166.8446   Anisotropy =    27.8407

     65  H    Isotropic =    30.7437   Anisotropy =     4.3419

     66  H    Isotropic =    30.1341   Anisotropy =    11.8530

     67  H    Isotropic =    30.2989   Anisotropy =    10.2297

     68  C    Isotropic =   166.9171   Anisotropy =    31.5470

     69  H    Isotropic =    30.4389   Anisotropy =     7.4209

     70  H    Isotropic =    30.1854   Anisotropy =    13.1636

     71  H    Isotropic =    30.4155   Anisotropy =     7.6706

 The electronic state is 1-A.
 Alpha  occ. eigenvalues -- ******************************-427.55470-414.88528
 Alpha  occ. eigenvalues -- -414.88450-414.88213-149.66786-149.66664-141.94596
 Alpha  occ. eigenvalues -- -141.94585-141.94523-141.94474-141.94464-141.94400
 Alpha  occ. eigenvalues -- -100.56741-100.56655-100.56620-100.56597-100.56515
 Alpha  occ. eigenvalues -- -100.56503 -99.93500 -92.09371 -92.09234 -92.08877
 Alpha  occ. eigenvalues --  -79.05235 -79.05133 -79.04928 -79.04860 -79.04806
 Alpha  occ. eigenvalues --  -76.31747 -76.31602 -28.83205 -28.83091 -25.17843
 Alpha  occ. eigenvalues --  -25.17815 -25.17727 -25.17704 -25.17615 -25.17497
 Alpha  occ. eigenvalues --  -20.84917 -17.72720 -17.72719 -17.72606 -17.72605
 Alpha  occ. eigenvalues --  -17.72583 -17.72567 -17.72530 -17.72465 -17.72453
 Alpha  occ. eigenvalues --  -17.72413 -17.41777 -17.41518 -17.40770 -11.60105
 Alpha  occ. eigenvalues --  -11.59751 -11.59317 -11.59202 -11.59075  -9.91873
 Alpha  occ. eigenvalues --   -9.91402  -9.91360  -9.91249  -9.91171  -9.90928
 Alpha  occ. eigenvalues --   -9.90605  -9.90385  -9.90329  -9.90242  -9.90210
 Alpha  occ. eigenvalues --   -9.90028  -9.88565  -9.88474  -9.88380  -9.88292
 Alpha  occ. eigenvalues --   -9.88207  -9.88116  -9.14592  -9.14506  -9.14476
 Alpha  occ. eigenvalues --   -9.14450  -9.14370  -9.14358  -6.98382  -6.98300
 Alpha  occ. eigenvalues --   -6.98264  -6.98253  -6.98154  -6.98141  -6.97779
 Alpha  occ. eigenvalues --   -6.97774  -6.97696  -6.97681  -6.97668  -6.97655
 Alpha  occ. eigenvalues --   -6.97639  -6.97618  -6.97570  -6.97555  -6.97545
 Alpha  occ. eigenvalues --   -6.97537  -6.34690  -6.34589  -4.57217  -4.57192
 Alpha  occ. eigenvalues --   -4.57096  -4.57078  -4.56996  -4.56920  -4.51963
 Alpha  occ. eigenvalues --   -4.51859  -3.25426  -3.25358  -3.25321  -3.25257
 Alpha  occ. eigenvalues --   -3.25016  -3.24912  -3.14988  -3.14951  -3.14510
 Alpha  occ. eigenvalues --   -3.14254  -3.14100  -3.14003  -3.13955  -2.87875
 Alpha  occ. eigenvalues --   -1.82914  -1.82572  -1.80335  -1.04464  -1.04455
 Alpha  occ. eigenvalues --   -1.04364  -1.04344  -1.04107  -1.04031  -1.04023
 Alpha  occ. eigenvalues --   -1.03981  -1.03919  -1.03875  -0.75097  -0.75014
 Alpha  occ. eigenvalues --   -0.73426  -0.73292  -0.72431  -0.72329  -0.72219
 Alpha  occ. eigenvalues --   -0.72065  -0.71726  -0.71637  -0.71610  -0.71453
 Alpha  occ. eigenvalues --   -0.66903  -0.66781  -0.63108  -0.63077  -0.62621
 Alpha  occ. eigenvalues --   -0.62402  -0.56386  -0.56164  -0.54630  -0.54518
 Alpha  occ. eigenvalues --   -0.54168  -0.53640  -0.49793  -0.49329  -0.44279
 Alpha  occ. eigenvalues --   -0.44060  -0.43786  -0.43473  -0.43266  -0.42722
 Alpha  occ. eigenvalues --   -0.42068  -0.41841  -0.40906  -0.40734  -0.39726
 Alpha  occ. eigenvalues --   -0.39243  -0.39091  -0.38600  -0.38118  -0.37723
 Alpha  occ. eigenvalues --   -0.37177  -0.36804  -0.36229  -0.35941  -0.35784
 Alpha  occ. eigenvalues --   -0.35681  -0.35101  -0.35007  -0.34345  -0.33948
 Alpha  occ. eigenvalues --   -0.33617  -0.33464  -0.33353  -0.33254  -0.32987
 Alpha  occ. eigenvalues --   -0.32490  -0.32314  -0.32013  -0.31932  -0.31626
 Alpha  occ. eigenvalues --   -0.31410  -0.31231  -0.30911  -0.30843  -0.30597
 Alpha  occ. eigenvalues --   -0.30474  -0.30296  -0.30064  -0.29818  -0.29741
 Alpha  occ. eigenvalues --   -0.29344  -0.29177  -0.28914  -0.28493  -0.28376
 Alpha  occ. eigenvalues --   -0.28273  -0.28113  -0.28052  -0.27841  -0.27708
 Alpha  occ. eigenvalues --   -0.27335  -0.27247  -0.27131  -0.26872  -0.26556
 Alpha  occ. eigenvalues --   -0.26449  -0.26333  -0.23762  -0.23335  -0.22554
 Alpha virt. eigenvalues --   -0.13084  -0.08195  -0.05659  -0.05266  -0.05129
 Alpha virt. eigenvalues --   -0.03736  -0.03279  -0.02767  -0.01913  -0.01292
 Alpha virt. eigenvalues --   -0.00974  -0.00715  -0.00335  -0.00225  -0.00021

 Mulliken charges:
               1
     1  Pt   0.245035
     2  Sn   0.240988
     3  Sn   0.295243
     4  Cl  -0.219715
     5  Cl  -0.227103
     6  Cl  -0.151985
     7  Cl  -0.143745
     8  Cl  -0.226979
     9  Cl  -0.240178
    10  C   -0.212381
    11  H    0.043907
    12  H    0.060022
    13  C   -0.210745
    14  H    0.059374
    15  H    0.066652
    16  C   -0.354666
    17  H    0.080124
    18  H    0.096316
    19  C   -0.177603
    20  H    0.042672
    21  H    0.045182
    22  C   -0.138118
    23  H    0.080142
    24  H    0.087739
    25  C   -0.106280
    26  H    0.068866
    27  H    0.046839
    28  C   -0.124620
    29  H    0.078935
    30  H    0.082098
    31  C   -0.090828
    32  H    0.103591
    33  H    0.029960
    34  C   -0.117833
    35  H    0.082310
    36  H    0.081269
    37  C   -0.106477
    38  H    0.084754
    39  H    0.085148
    40  C   -0.196632
    41  H    0.111531
    42  H    0.060876
    43  C   -0.169515
    44  H    0.084147
    45  H    0.074644
    46  P   -0.074296
    47  P   -0.138992
    48  C   -0.240372
    49  H    0.147244
    50  H    0.119323
    51  H    0.118672
    52  C   -0.214744
    53  H    0.129018
    54  H    0.138698
    55  H    0.116416
    56  C   -0.180696
    57  H    0.082748
    58  H    0.126432
    59  H    0.115531
    60  C   -0.244383
    61  H    0.143634
    62  H    0.121327
    63  H    0.128115
    64  C   -0.140381
    65  H    0.060486
    66  H    0.133196
    67  H    0.111562
    68  C   -0.247849
    69  H    0.121361
    70  H    0.143188
    71  H    0.121804
 Sum of Mulliken charges =   0.00000

 Dipole moment (field-independent basis, Debye):
    X=             -1.6504    Y=              1.0903    Z=              6.8930  Tot=              7.1712
 Quadrupole moment (field-independent basis, Debye-Ang):
   XX=           -284.3916   YY=           -359.8124   ZZ=           -310.0577
   XY=            -50.4657   XZ=              5.8644   YZ=             -0.6830

 1\1\GINC-NEQC17\SP\RPBEPBE\Gen\C18H42Cl6P2Pt1Sn2\DIEGO\08-Sep-2018\0\\
 #PBEPBE/gen scf=(maxcycle=1000,conver=4) NMR=GIAO Scrf=(solvent=Dichlo
 romethane)\\estrutura 10\\0,1\Pt,0,0.004039,-0.010068,-0.042297\Sn,0,-
 1.081844,-2.428383,-0.383304\Sn,0,1.275462,2.256881,-0.632042\Cl,0,3.2
 58204,1.910221,-2.004222\Cl,0,2.119163,3.564606,1.236609\Cl,0,0.441053
 ,4.092444,-1.972433\Cl,0,0.232006,-4.451981,-0.700089\Cl,0,-2.344372,-
 2.629972,-2.447096\Cl,0,-2.60857,-3.320709,1.285984\C,0,3.452521,0.117
 509,1.119175\H,0,3.835272,0.6379,0.227251\H,0,2.950404,0.881804,1.7308

 Normal termination of Gaussian 09 at Sat Sep  8 22:46:23 2018.
