 Gaussian 09, Revision D.01,
 Gaussian 09:  EM64L-G09RevD.01 24-Apr-2013

 ----------------------------------------------------------------------
 #PBEPBE/gen scf=(maxcycle=500,conver=4) NMR=GIAO Scrf=(solvent=Dichlor
 omethane)
 ----------------------------------------------------------------------

 ------------
 estrutura 30
 ------------
 Symbolic Z-matrix:
 Charge = -1 Multiplicity = 1

                         Standard orientation:
 ---------------------------------------------------------------------
 Center     Atomic      Atomic             Coordinates (Angstroms)
 Number     Number       Type             X           Y           Z
 ---------------------------------------------------------------------
      1         78           0       -0.421836   -1.386599   -0.187166
      2         17           0       -2.316129   -2.918473   -0.297269
      3         17           0        1.173303   -3.208512   -0.332566
      4         50           0       -2.333782    0.346231   -0.034563
      5         17           0       -1.847137    2.733201    0.053931
      6         17           0       -3.827614    0.236860    1.868113
      7         17           0       -3.931625    0.425819   -1.853995
      8         33           0        1.331570    0.222761    0.051622
      9          6           0        1.381890    1.543166   -1.389896
     10          6           0        2.122327    2.735736   -1.305826
     11          6           0        0.711158    1.223175   -2.581620
     12          6           0        2.148302    3.621371   -2.388452
     13          1           0        2.693259    2.985098   -0.408307
     14          6           0        0.777801    2.093225   -3.676113
     15          1           0        0.141524    0.292225   -2.656843
     16          6           0        1.483729    3.297263   -3.578362
     17          1           0        2.693550    4.566642   -2.300672
     18          1           0        0.267571    1.828619   -4.606168
     19          1           0        1.522220    3.986429   -4.426540
     20          6           0        1.162616    1.068028    1.811466
     21          6           0        1.367829    2.429965    2.072260
     22          6           0        0.807583    0.208112    2.866489
     23          6           0        1.241572    2.920375    3.376494
     24          1           0        1.607269    3.127988    1.271285
     25          6           0        0.685658    0.702695    4.168727
     26          1           0        0.609925   -0.849743    2.671482
     27          6           0        0.906010    2.059434    4.425874
     28          1           0        1.401691    3.984764    3.566196
     29          1           0        0.406982    0.024440    4.979460
     30          1           0        0.806282    2.447550    5.442577
     31          6           0        3.186510   -0.410471    0.019019
     32          6           0        3.772298   -0.690765   -1.225518
     33          6           0        3.929734   -0.583651    1.194409
     34          6           0        5.097110   -1.130081   -1.291588
     35          1           0        3.202651   -0.560199   -2.149571
     36          6           0        5.256781   -1.025795    1.122887
     37          1           0        3.486869   -0.370110    2.169873
     38          6           0        5.842069   -1.296963   -0.117845
     39          1           0        5.547428   -1.340395   -2.265554
     40          1           0        5.833893   -1.154714    2.043032
     41          1           0        6.879965   -1.636656   -0.170742
 ---------------------------------------------------------------------

 SCF Done:  E(RPBE-PBE) =  -28316.5915656     A.U. after    9 cycles

      1  Pt   Isotropic =  2734.8360   Anisotropy =  2139.8673

      2  Cl   Isotropic =  1022.7944   Anisotropy =   558.0713

      3  Cl   Isotropic =   852.7699   Anisotropy =   167.7514

      4  Sn   Isotropic =  2151.4051   Anisotropy =   853.9277

      5  Cl   Isotropic =   761.1219   Anisotropy =   298.6156

      6  Cl   Isotropic =   771.4459   Anisotropy =   337.7319

      7  Cl   Isotropic =   769.5088   Anisotropy =   335.3642

      8  As   Isotropic =   986.2949   Anisotropy =   328.2167

      9  C    Isotropic =    18.9249   Anisotropy =   172.3509

     10  C    Isotropic =    44.5808   Anisotropy =   178.0671

     11  C    Isotropic =    30.0773   Anisotropy =   163.5907

     12  C    Isotropic =    62.9141   Anisotropy =   208.9663

     13  H    Isotropic =    23.9427   Anisotropy =    11.2955

     14  C    Isotropic =    54.0766   Anisotropy =   195.9782

     15  H    Isotropic =    22.7800   Anisotropy =    14.9079

     16  C    Isotropic =    52.5884   Anisotropy =   194.3949

     17  H    Isotropic =    25.0083   Anisotropy =     3.9986

     18  H    Isotropic =    23.8572   Anisotropy =     7.3308

     19  H    Isotropic =    25.2795   Anisotropy =     1.3468

     20  C    Isotropic =    36.4497   Anisotropy =   175.9317

     21  C    Isotropic =    44.0369   Anisotropy =   173.8263

     22  C    Isotropic =    45.2627   Anisotropy =   182.0321

     23  C    Isotropic =    55.7814   Anisotropy =   196.0719

     24  H    Isotropic =    23.1323   Anisotropy =    11.1241

     25  C    Isotropic =    56.1789   Anisotropy =   193.6711

     26  H    Isotropic =    22.7627   Anisotropy =    14.3874

     27  C    Isotropic =    47.8353   Anisotropy =   189.6845

     28  H    Isotropic =    23.7017   Anisotropy =     5.9091

     29  H    Isotropic =    23.6091   Anisotropy =     6.7518

     30  H    Isotropic =    24.1095   Anisotropy =     2.4987

     31  C    Isotropic =    16.6227   Anisotropy =   171.2134

     32  C    Isotropic =    25.8842   Anisotropy =   151.3267

     33  C    Isotropic =    37.5379   Anisotropy =   160.1573

     34  C    Isotropic =    57.7114   Anisotropy =   205.8078

     35  H    Isotropic =    24.4268   Anisotropy =    13.0978

     36  C    Isotropic =    65.1433   Anisotropy =   218.4882

     37  H    Isotropic =    24.5911   Anisotropy =    13.7330

     38  C    Isotropic =    62.7797   Anisotropy =   224.9906

     39  H    Isotropic =    24.3604   Anisotropy =     6.4558

     40  H    Isotropic =    24.7405   Anisotropy =     5.7821

     41  H    Isotropic =    25.1489   Anisotropy =     1.6695

 The electronic state is 1-A.
 Alpha  occ. eigenvalues -- ********************-427.52325-422.28959-414.85368
 Alpha  occ. eigenvalues -- -414.85328-414.85034-149.64832-141.92644-141.92636
 Alpha  occ. eigenvalues -- -141.92566-100.54960-100.54886-100.54536-100.51720
 Alpha  occ. eigenvalues -- -100.50748 -99.90376 -92.06222 -92.06177 -92.05700
 Alpha  occ. eigenvalues --  -79.02149 -79.02011 -79.01754 -79.01733 -79.01652
 Alpha  occ. eigenvalues --  -53.00643 -47.59912 -47.59907 -47.59823 -28.81261
 Alpha  occ. eigenvalues --  -25.15907 -25.15878 -25.15653 -20.81835 -17.70785
 Alpha  occ. eigenvalues --  -17.70784 -17.70632 -17.70613 -17.70573 -17.38662
 Alpha  occ. eigenvalues --  -17.38573 -17.37578 -11.57164 -11.56668 -11.56147
 Alpha  occ. eigenvalues --  -11.56109 -11.55942  -9.91999  -9.91905  -9.91503
 Alpha  occ. eigenvalues --   -9.90732  -9.90495  -9.90412  -9.90366  -9.90345
 Alpha  occ. eigenvalues --   -9.90266  -9.90125  -9.90109  -9.90072  -9.90055
 Alpha  occ. eigenvalues --   -9.90036  -9.90008  -9.89896  -9.89850  -9.89782
 Alpha  occ. eigenvalues --   -9.12820  -9.12748  -9.12404  -9.09502  -9.08568
 Alpha  occ. eigenvalues --   -6.96627  -6.96553  -6.96187  -6.96004  -6.95986
 Alpha  occ. eigenvalues --   -6.95935  -6.95912  -6.95594  -6.95584  -6.93264
 Alpha  occ. eigenvalues --   -6.92719  -6.92701  -6.92319  -6.91819  -6.91737
 Alpha  occ. eigenvalues --   -6.72875  -4.85712  -4.85704  -4.85464  -4.50031
 Alpha  occ. eigenvalues --   -3.23481  -3.23447  -3.23076  -3.11998  -3.11981
 Alpha  occ. eigenvalues --   -3.11449  -3.11105  -3.10926  -3.10893  -3.10818
 Alpha  occ. eigenvalues --   -2.84823  -1.79991  -1.79697  -1.77005  -1.53570
 Alpha  occ. eigenvalues --   -1.53562  -1.53361  -1.53349  -1.53305  -1.02535
 Alpha  occ. eigenvalues --   -1.02515  -1.02144  -1.02135  -1.02072  -0.79001
 Alpha  occ. eigenvalues --   -0.78511  -0.78203  -0.71548  -0.70434  -0.69967
 Alpha  occ. eigenvalues --   -0.69677  -0.68411  -0.68370  -0.68082  -0.67784
 Alpha  occ. eigenvalues --   -0.67692  -0.66888  -0.65936  -0.59878  -0.55448
 Alpha  occ. eigenvalues --   -0.55211  -0.54688  -0.54161  -0.54101  -0.51528
 Alpha  occ. eigenvalues --   -0.46928  -0.46922  -0.45351  -0.41550  -0.41303
 Alpha  occ. eigenvalues --   -0.41191  -0.40760  -0.40587  -0.40099  -0.39866
 Alpha  occ. eigenvalues --   -0.38260  -0.37726  -0.37528  -0.37010  -0.36186
 Alpha  occ. eigenvalues --   -0.35174  -0.33940  -0.33671  -0.33399  -0.32379
 Alpha  occ. eigenvalues --   -0.32145  -0.31795  -0.31413  -0.30896  -0.30600
 Alpha  occ. eigenvalues --   -0.30367  -0.29945  -0.28805  -0.28546  -0.27323
 Alpha  occ. eigenvalues --   -0.27039  -0.26833  -0.26588  -0.26430  -0.26296
 Alpha  occ. eigenvalues --   -0.25551  -0.25385  -0.25080  -0.24128  -0.23769
 Alpha  occ. eigenvalues --   -0.23725  -0.23498  -0.23272  -0.23108  -0.22685
 Alpha  occ. eigenvalues --   -0.21375  -0.20891  -0.20522  -0.20457  -0.20234
 Alpha virt. eigenvalues --   -0.10767  -0.06636  -0.05852  -0.05576  -0.05338
 Alpha virt. eigenvalues --   -0.04900  -0.04543  -0.03434  -0.02120  -0.01739
 Alpha virt. eigenvalues --   -0.00841   0.00223   0.00357   0.00456   0.00920

 Mulliken charges:
               1
     1  Pt   0.054461
     2  Cl  -0.547134
     3  Cl  -0.528366
     4  Sn   0.329166
     5  Cl  -0.240869
     6  Cl  -0.232897
     7  Cl  -0.246498
     8  As   0.728071
     9  C   -0.217194
    10  C    0.072940
    11  C    0.137844
    12  C   -0.048723
    13  H    0.096339
    14  C   -0.206101
    15  H    0.106143
    16  C   -0.547998
    17  H    0.150769
    18  H    0.148417
    19  H    0.160433
    20  C   -0.179830
    21  C   -0.113578
    22  C    0.289077
    23  C   -0.138953
    24  H    0.077277
    25  C   -0.077816
    26  H    0.100786
    27  C   -0.541040
    28  H    0.147417
    29  H    0.148957
    30  H    0.158090
    31  C   -0.002626
    32  C   -0.011218
    33  C   -0.087555
    34  C    0.017547
    35  H    0.113507
    36  C   -0.109797
    37  H    0.110910
    38  C   -0.530617
    39  H    0.152402
    40  H    0.148784
    41  H    0.159471
 Sum of Mulliken charges =  -1.00000

 Dipole moment (field-independent basis, Debye):
    X=             15.5572    Y=             11.1820    Z=              1.4812  Tot=             19.2161
 Quadrupole moment (field-independent basis, Debye-Ang):
   XX=           -285.5880   YY=           -288.1208   ZZ=           -228.5372
   XY=              7.5666   XZ=             -0.4256   YZ=             -5.6942

 Normal termination of Gaussian 09 at Thu May 23 03:30:43 2019.
