 Gaussian 09, Revision A.02,
 Gaussian 09:  EM64L-G09RevA.02 11-Jun-2009

 ----------------------------------------------------------------------
 #PBEPBE/gen scf=(maxcycle=500,conver=4) NMR=GIAO Scrf=(solvent=Dichlor
 omethane)
 ----------------------------------------------------------------------

 ------------
 estrutura 43
 ------------
 Symbolic Z-matrix:
 Charge = -3 Multiplicity = 1

                         Standard orientation:
 ---------------------------------------------------------------------
 Center     Atomic      Atomic             Coordinates (Angstroms)
 Number     Number       Type             X           Y           Z
 ---------------------------------------------------------------------
      1         78           0       -0.010293    0.018069   -0.352711
      2          1           0       -0.079842    0.342075   -1.896115
      3         50           0       -2.274342   -1.200552   -0.937657
      4         50           0        0.128651   -0.667766    2.230980
      5         50           0        2.405985   -0.811399   -1.036386
      6         50           0       -0.250110    2.661803   -0.144166
      7         17           0       -1.168943   -2.595512    3.014394
      8         17           0       -0.483058    0.878206    4.026736
      9         17           0        2.293527   -1.370507    3.150525
     10         17           0       -4.276542   -1.078279    0.497611
     11         17           0       -2.309193   -3.620622   -1.408658
     12         17           0        2.998927   -0.616680   -3.422590
     13         17           0        4.396709    0.331643   -0.135195
     14         17           0        3.133778   -3.146684   -0.733038
     15         17           0       -3.341835   -0.470141   -3.033798
     16         17           0        0.470696    3.938069   -2.137891
     17         17           0       -2.534834    3.604964    0.030783
     18         17           0        0.842738    4.095206    1.549303
 ---------------------------------------------------------------------

 SCF Done:  E(RPBE-PBE) =  -46552.2148353     A.U. after    9 cycles

  1  Pt   Isotropic =  3923.5658   Anisotropy =   267.0212

  2  H    Isotropic =    34.9947   Anisotropy =    28.4027

  3  Sn   Isotropic =  2140.6311   Anisotropy =   956.8013

  4  Sn   Isotropic =  2080.2618   Anisotropy =   947.1226

  5  Sn   Isotropic =  2142.1309   Anisotropy =   947.8207

  6  Sn   Isotropic =  2157.4505   Anisotropy =   938.6602

  7  Cl   Isotropic =   703.9637   Anisotropy =   398.3547

  8  Cl   Isotropic =   714.3630   Anisotropy =   392.1546

  9  Cl   Isotropic =   698.2604   Anisotropy =   398.1439

 10  Cl   Isotropic =   717.6907   Anisotropy =   408.2123

 11  Cl   Isotropic =   723.7502   Anisotropy =   407.4477

 12  Cl   Isotropic =   716.4845   Anisotropy =   414.4729

 13  Cl   Isotropic =   720.7696   Anisotropy =   402.0676

 14  Cl   Isotropic =   718.7786   Anisotropy =   409.4253

 15  Cl   Isotropic =   714.7870   Anisotropy =   413.0975

 16  Cl   Isotropic =   719.7845   Anisotropy =   411.5187

 17  Cl   Isotropic =   722.2207   Anisotropy =   410.0868

 18  Cl   Isotropic =   720.2319   Anisotropy =   407.1037

 The electronic state is 1-A.
 Alpha  occ. eigenvalues -- **************************************************
 Alpha  occ. eigenvalues -- -427.53209-414.86244-414.86064-414.86031-149.62822
 Alpha  occ. eigenvalues -- -149.62325-149.62302-149.61920-141.90639-141.90638
 Alpha  occ. eigenvalues -- -141.90565-141.90139-141.90133-141.90115-141.90111
 Alpha  occ. eigenvalues -- -141.90070-141.90047-141.89732-141.89729-141.89667
 Alpha  occ. eigenvalues -- -100.52478-100.52403-100.52383-100.52371-100.52360
 Alpha  occ. eigenvalues -- -100.52358-100.52308-100.52216-100.52216-100.52165
 Alpha  occ. eigenvalues -- -100.52044-100.52017 -99.91277 -92.07200 -92.06824
 Alpha  occ. eigenvalues --  -92.06769 -79.02986 -79.02831 -79.02799 -79.02599
 Alpha  occ. eigenvalues --  -79.02598 -28.79161 -28.78688 -28.78669 -28.78293
 Alpha  occ. eigenvalues --  -25.13795 -25.13791 -25.13560 -25.13316 -25.13302
 Alpha  occ. eigenvalues --  -25.13295 -25.13285 -25.13108 -25.13089 -25.12914
 Alpha  occ. eigenvalues --  -25.12907 -25.12718 -20.82777 -17.68697 -17.68696
 Alpha  occ. eigenvalues --  -17.68540 -17.68538 -17.68493 -17.68206 -17.68206
 Alpha  occ. eigenvalues --  -17.68187 -17.68186 -17.68074 -17.68064 -17.68053
 Alpha  occ. eigenvalues --  -17.68046 -17.68029 -17.68009 -17.67806 -17.67805
 Alpha  occ. eigenvalues --  -17.67677 -17.67672 -17.67636 -17.39748 -17.39006
 Alpha  occ. eigenvalues --  -17.38891 -11.57919 -11.57460 -11.57392 -11.57001
 Alpha  occ. eigenvalues --  -11.56997  -9.10392  -9.10313  -9.10270  -9.10249
 Alpha  occ. eigenvalues --   -9.10235  -9.10225  -9.10179  -9.10105  -9.10104
 Alpha  occ. eigenvalues --   -9.10026  -9.09911  -9.09897  -6.94158  -6.94074
 Alpha  occ. eigenvalues --   -6.94031  -6.94005  -6.93995  -6.93979  -6.93936
 Alpha  occ. eigenvalues --   -6.93855  -6.93855  -6.93776  -6.93655  -6.93639
 Alpha  occ. eigenvalues --   -6.93589  -6.93571  -6.93511  -6.93497  -6.93469
 Alpha  occ. eigenvalues --   -6.93457  -6.93455  -6.93443  -6.93441  -6.93435
 Alpha  occ. eigenvalues --   -6.93429  -6.93420  -6.93385  -6.93371  -6.93315
 Alpha  occ. eigenvalues --   -6.93313  -6.93295  -6.93295  -6.93238  -6.93224
 Alpha  occ. eigenvalues --   -6.93127  -6.93113  -6.93111  -6.93092  -4.47795
 Alpha  occ. eigenvalues --   -4.47361  -4.47350  -4.46978  -3.21220  -3.21212
 Alpha  occ. eigenvalues --   -3.20831  -3.20780  -3.20766  -3.20753  -3.20747
 Alpha  occ. eigenvalues --   -3.20439  -3.20430  -3.20389  -3.20376  -3.20060
 Alpha  occ. eigenvalues --   -3.12782  -3.12611  -3.12538  -3.12121  -3.12116
 Alpha  occ. eigenvalues --   -3.11854  -3.11851  -2.85848  -1.80995  -1.79584
 Alpha  occ. eigenvalues --   -1.79245  -1.00219  -1.00214  -0.99859  -0.99855
 Alpha  occ. eigenvalues --   -0.99784  -0.99769  -0.99760  -0.99759  -0.99751
 Alpha  occ. eigenvalues --   -0.99452  -0.99442  -0.99430  -0.99421  -0.99399
 Alpha  occ. eigenvalues --   -0.99382  -0.99379  -0.99369  -0.99074  -0.99051
 Alpha  occ. eigenvalues --   -0.99008  -0.69200  -0.68878  -0.68865  -0.68574
 Alpha  occ. eigenvalues --   -0.67609  -0.67538  -0.67400  -0.67396  -0.67331
 Alpha  occ. eigenvalues --   -0.67310  -0.67138  -0.67081  -0.40018  -0.38747
 Alpha  occ. eigenvalues --   -0.38542  -0.38309  -0.34996  -0.29997  -0.29796
 Alpha  occ. eigenvalues --   -0.29593  -0.29440  -0.29079  -0.28927  -0.28860
 Alpha  occ. eigenvalues --   -0.28782  -0.28669  -0.28202  -0.28098  -0.26554
 Alpha  occ. eigenvalues --   -0.26397  -0.25999  -0.25067  -0.24940  -0.24849
 Alpha  occ. eigenvalues --   -0.24769  -0.24585  -0.24554  -0.24482  -0.24416
 Alpha  occ. eigenvalues --   -0.24294  -0.24281  -0.23473  -0.23447  -0.23394
 Alpha  occ. eigenvalues --   -0.23241  -0.23221  -0.23118  -0.22980  -0.22927
 Alpha  occ. eigenvalues --   -0.22840  -0.22832  -0.22762  -0.22644  -0.22577
 Alpha  occ. eigenvalues --   -0.20024  -0.17379  -0.16518
 Alpha virt. eigenvalues --   -0.07914  -0.03936  -0.03768  -0.03543  -0.01945
 Alpha virt. eigenvalues --   -0.01669   0.00140   0.00416   0.00538   0.00755
 Alpha virt. eigenvalues --    0.00994   0.01094   0.01149   0.02456   0.02830

 Mulliken atomic charges:
              1
     1  Pt  -1.029675
     2  H    0.094993
     3  Sn   0.410946
     4  Sn   0.223908
     5  Sn   0.362260
     6  Sn   0.439829
     7  Cl  -0.272937
     8  Cl  -0.263686
     9  Cl  -0.281611
    10  Cl  -0.292288
    11  Cl  -0.293614
    12  Cl  -0.293913
    13  Cl  -0.294970
    14  Cl  -0.286444
    15  Cl  -0.291386
    16  Cl  -0.311052
    17  Cl  -0.318010
    18  Cl  -0.302350
 Sum of Mulliken atomic charges =  -3.00000

 Dipole moment (field-independent basis, Debye):
    X=              0.1033    Y=             -0.8238    Z=             -0.3982  Tot=              0.9208
 Quadrupole moment (field-independent basis, Debye-Ang):
   XX=           -428.1288   YY=           -419.9344   ZZ=           -396.8325
   XY=              0.5093   XZ=             -0.0622   YZ=              0.1983

 1\1\GINC-NEQC33\SP\RPBEPBE\Gen\Cl12H1Pt1Sn4(3-)\GUEST1\15-Jun-2019\0\\
 #PBEPBE/gen scf=(maxcycle=500,conver=4) NMR=GIAO Scrf=(solvent=Dichlor
 omethane)\\estrutura 43\\-3,1\Pt,0,0.010293,0.018069,0.352711\H,0,0.07
 9842,0.342075,1.896115\Sn,0,2.274343,-1.20055,0.937657\Sn,0,-0.128651,
 -0.667766,-2.23098\Sn,0,-2.405984,-0.811401,1.036386\Sn,0,0.250108,2.6
 61803,0.144166\Cl,0,1.168945,-2.595511,-3.014394\Cl,0,0.483057,0.87820
 6,-4.026736\Cl,0,-2.293526,-1.370508,-3.150525\Cl,0,4.276543,-1.078276
 ,-0.497611\Cl,0,2.309195,-3.62062,1.408658\Cl,0,-2.998927,-0.616682,3.

 Normal termination of Gaussian 09 at Sat Jun 15 00:54:54 2019.
