 Gaussian 09, Revision D.01,
 Gaussian 09:  EM64L-G09RevD.01 24-Apr-2013

 ----------------------------------------------------------------------
 #PBEPBE/gen scf=(maxcycle=500,conver=3) NMR=GIAO Scrf=(solvent=Dichlor
 omethane)
 ----------------------------------------------------------------------

 -------------
 estrutura 104
 -------------
 Symbolic Z-matrix:
 Charge =  0 Multiplicity = 1

                         Standard orientation:
 ---------------------------------------------------------------------
 Center     Atomic      Atomic             Coordinates (Angstroms)
 Number     Number       Type             X           Y           Z
 ---------------------------------------------------------------------
      1         78           0        0.087222   -0.829960   -0.107891
      2         15           0       -2.278352   -1.153689    0.077169
      3          6           0       -3.558479    0.186788    0.207378
      4          6           0       -4.194012    0.518558    1.414487
      5          6           0       -3.950887    0.850682   -0.968575
      6          6           0       -5.203004    1.486757    1.442457
      7          1           0       -3.917014    0.017551    2.341703
      8          6           0       -4.960175    1.815590   -0.938718
      9          1           0       -3.485146    0.596724   -1.924334
     10          6           0       -5.590355    2.136678    0.269319
     11          1           0       -5.688793    1.727973    2.391946
     12          1           0       -5.258102    2.313533   -1.864311
     13          1           0       -6.385709    2.885936    0.292186
     14          6           0       -2.505602   -2.126410    1.629059
     15          6           0       -3.120620   -3.387735    1.660907
     16          6           0       -1.976773   -1.591760    2.817867
     17          6           0       -3.216123   -4.093708    2.865453
     18          1           0       -3.512414   -3.834590    0.746607
     19          6           0       -2.079778   -2.296929    4.019291
     20          1           0       -1.477669   -0.618197    2.805669
     21          6           0       -2.700563   -3.552360    4.045708
     22          1           0       -3.691776   -5.078801    2.874411
     23          1           0       -1.667730   -1.868997    4.935449
     24          1           0       -2.774136   -4.109269    4.983107
     25          6           0       -3.005196   -2.115212   -1.323818
     26          6           0       -4.376971   -2.433928   -1.315740
     27          6           0       -2.235803   -2.453423   -2.446053
     28          6           0       -4.959621   -3.090446   -2.404115
     29          1           0       -5.003612   -2.157169   -0.464020
     30          6           0       -2.823265   -3.100850   -3.537571
     31          1           0       -1.173330   -2.215250   -2.461784
     32          6           0       -4.182370   -3.421707   -3.520095
     33          1           0       -6.026370   -3.332113   -2.381542
     34          1           0       -2.212936   -3.354613   -4.406921
     35          1           0       -4.641898   -3.925881   -4.374284
     36         50           0        0.055156    1.821560   -0.039595
     37          6           0       -0.915466    2.709077   -1.824054
     38          1           0       -0.084086    3.010366   -2.485827
     39          1           0       -1.390868    1.837867   -2.299560
     40          6           0        1.921264    2.875356    0.516116
     41          1           0        2.148230    2.546995    1.542453
     42          1           0        2.679674    2.417784   -0.135317
     43         17           0        0.120814   -3.339977   -0.143489
     44         15           0        2.460753   -0.789599   -0.152910
     45          6           0        3.286830   -2.424242   -0.415410
     46          6           0        3.368776   -2.953359   -1.714991
     47          6           0        3.791277   -3.172693    0.658915
     48          6           0        3.947605   -4.205131   -1.934054
     49          1           0        2.979156   -2.391433   -2.566241
     50          6           0        4.371999   -4.425981    0.435255
     51          1           0        3.733179   -2.785942    1.677452
     52          6           0        4.451081   -4.945781   -0.859116
     53          1           0        4.002732   -4.603726   -2.950096
     54          1           0        4.761849   -4.997384    1.281346
     55          1           0        4.902645   -5.926135   -1.031500
     56          6           0        3.133892    0.188441   -1.577724
     57          6           0        4.457234    0.656194   -1.685751
     58          6           0        2.269284    0.370273   -2.675580
     59          6           0        4.883123    1.331778   -2.830760
     60          1           0        5.181977    0.492226   -0.887897
     61          6           0        2.707849    1.015874   -3.834410
     62          1           0        1.246337   -0.015176   -2.623780
     63          6           0        4.010862    1.514330   -3.910730
     64          1           0        5.907099    1.708802   -2.882669
     65          1           0        2.024388    1.129262   -4.680884
     66          1           0        4.350982    2.034468   -4.810019
     67          6           0        3.103088   -0.234608    1.493323
     68          6           0        4.360828    0.349079    1.732200
     69          6           0        2.261778   -0.482961    2.595419
     70          6           0        4.751466    0.694421    3.028923
     71          1           0        5.051831    0.553184    0.920246
     72          6           0        2.662384   -0.155605    3.893168
     73          1           0        1.277639   -0.934762    2.436288
     74          6           0        3.905518    0.443845    4.114040
     75          1           0        5.727184    1.163892    3.187253
     76          1           0        1.993808   -0.361948    4.730563
     77          1           0        4.214169    0.714763    5.126682
     78         17           0       -1.361323    2.527348    1.865844
     79          6           0       -1.925194    3.851251   -1.651614
     80          1           0       -2.595203    3.861003   -2.533019
     81          1           0       -2.580602    3.654694   -0.786290
     82          6           0       -1.312990    5.248017   -1.512216
     83          1           0       -0.673849    5.451648   -2.391544
     84          1           0       -0.640915    5.274743   -0.638081
     85          6           0       -2.362998    6.352398   -1.375406
     86          1           0       -2.978541    6.207927   -0.471542
     87          1           0       -1.897536    7.349254   -1.305891
     88          1           0       -3.046384    6.364144   -2.241545
     89          6           0        2.004548    4.402093    0.403387
     90          1           0        3.075511    4.684760    0.429427
     91          1           0        1.643062    4.737505   -0.585738
     92          6           0        1.283068    5.191369    1.500891
     93          1           0        0.197841    5.002286    1.446337
     94          1           0        1.597613    4.802431    2.486722
     95          6           0        1.556533    6.695520    1.436856
     96          1           0        0.994115    7.242912    2.210271
     97          1           0        2.628597    6.912994    1.589036
     98          1           0        1.272284    7.119398    0.457299
 ---------------------------------------------------------------------

 SCF Done:  E(RPBE-PBE) =  -26397.8163652     A.U. after   10 cycles

      1  Pt   Isotropic =  3411.0517   Anisotropy =  1291.3828

      2  P    Isotropic =   242.1655   Anisotropy =    89.2051

      3  C    Isotropic =     2.4527   Anisotropy =   175.3632

      4  C    Isotropic =    16.6801   Anisotropy =   143.3881

      5  C    Isotropic =    17.3949   Anisotropy =   141.9239

      6  C    Isotropic =    80.5753   Anisotropy =   250.6434

      7  H    Isotropic =    24.0668   Anisotropy =    12.0930

      8  C    Isotropic =    72.0352   Anisotropy =   248.2204

      9  H    Isotropic =    24.8035   Anisotropy =     9.6244

     10  C    Isotropic =    84.1575   Anisotropy =   251.2265

     11  H    Isotropic =    26.0666   Anisotropy =     3.7290

     12  H    Isotropic =    25.8179   Anisotropy =     4.2891

     13  H    Isotropic =    26.8706   Anisotropy =     3.9255

     14  C    Isotropic =    28.0810   Anisotropy =   193.1194

     15  C    Isotropic =    19.1184   Anisotropy =   139.6948

     16  C    Isotropic =    34.9895   Anisotropy =   169.6596

     17  C    Isotropic =    56.2461   Anisotropy =   227.4136

     18  H    Isotropic =    23.6890   Anisotropy =    14.7850

     19  C    Isotropic =    58.4138   Anisotropy =   205.1497

     20  H    Isotropic =    23.6148   Anisotropy =    11.6039

     21  C    Isotropic =    68.1204   Anisotropy =   250.2846

     22  H    Isotropic =    22.7220   Anisotropy =     8.3186

     23  H    Isotropic =    23.9743   Anisotropy =     7.7099

     24  H    Isotropic =    23.3803   Anisotropy =     4.8503

     25  C    Isotropic =    10.4412   Anisotropy =   163.4923

     26  C    Isotropic =   -20.4547   Anisotropy =   100.7936

     27  C    Isotropic =    19.0942   Anisotropy =   126.6588

     28  C    Isotropic =    60.5837   Anisotropy =   266.7828

     29  H    Isotropic =    24.0813   Anisotropy =    13.3021

     30  C    Isotropic =    72.1162   Anisotropy =   227.0821

     31  H    Isotropic =    23.3231   Anisotropy =    16.4094

     32  C    Isotropic =    86.3308   Anisotropy =   319.4107

     33  H    Isotropic =    21.8073   Anisotropy =     9.5016

     34  H    Isotropic =    24.7736   Anisotropy =     7.2284

     35  H    Isotropic =    23.2442   Anisotropy =     4.9223

     36  Sn   Isotropic =  1858.3515   Anisotropy =   275.5407

     37  C    Isotropic =   156.6067   Anisotropy =    40.5557

     38  H    Isotropic =    30.6966   Anisotropy =     7.8658

     39  H    Isotropic =    30.3364   Anisotropy =     4.9149

     40  C    Isotropic =   148.3529   Anisotropy =    23.8282

     41  H    Isotropic =    32.1937   Anisotropy =     8.4247

     42  H    Isotropic =    31.6233   Anisotropy =    10.3283

     43  Cl   Isotropic =   844.2573   Anisotropy =   268.3115

     44  P    Isotropic =   252.4101   Anisotropy =   123.3869

     45  C    Isotropic =    16.2723   Anisotropy =   165.5363

     46  C    Isotropic =    27.4579   Anisotropy =   153.6323

     47  C    Isotropic =    25.8412   Anisotropy =   147.9416

     48  C    Isotropic =    58.7900   Anisotropy =   206.4521

     49  H    Isotropic =    24.8508   Anisotropy =    13.9541

     50  C    Isotropic =    56.3351   Anisotropy =   211.7502

     51  H    Isotropic =    25.0219   Anisotropy =    14.9960

     52  C    Isotropic =    85.6858   Anisotropy =   303.2937

     53  H    Isotropic =    24.3060   Anisotropy =     7.5962

     54  H    Isotropic =    23.7961   Anisotropy =     8.0492

     55  H    Isotropic =    23.5282   Anisotropy =     4.0618

     56  C    Isotropic =    11.1266   Anisotropy =   153.6976

     57  C    Isotropic =     3.6449   Anisotropy =    98.4746

     58  C    Isotropic =    22.3482   Anisotropy =   127.6373

     59  C    Isotropic =    56.5577   Anisotropy =   238.5701

     60  H    Isotropic =    21.5828   Anisotropy =    12.8538

     61  C    Isotropic =    62.6760   Anisotropy =   204.7308

     62  H    Isotropic =    23.4615   Anisotropy =    15.5949

     63  C    Isotropic =    80.4141   Anisotropy =   280.1171

     64  H    Isotropic =    22.8843   Anisotropy =     6.4189

     65  H    Isotropic =    24.8420   Anisotropy =     7.0460

     66  H    Isotropic =    23.4788   Anisotropy =     4.7904

     67  C    Isotropic =    21.3150   Anisotropy =   150.8424

     68  C    Isotropic =     5.5227   Anisotropy =    91.8102

     69  C    Isotropic =    24.4665   Anisotropy =   140.7495

     70  C    Isotropic =    55.0984   Anisotropy =   240.5385

     71  H    Isotropic =    21.0276   Anisotropy =    13.4003

     72  C    Isotropic =    61.3410   Anisotropy =   200.0965

     73  H    Isotropic =    23.5119   Anisotropy =    15.2350

     74  C    Isotropic =    77.2590   Anisotropy =   285.2448

     75  H    Isotropic =    21.9541   Anisotropy =     7.2728

     76  H    Isotropic =    24.3731   Anisotropy =     7.5662

     77  H    Isotropic =    22.4738   Anisotropy =     5.9987

     78  Cl   Isotropic =   941.3977   Anisotropy =    66.0516

     79  C    Isotropic =   147.6202   Anisotropy =    28.0991

     80  H    Isotropic =    29.4149   Anisotropy =    10.2197

     81  H    Isotropic =    31.2744   Anisotropy =     5.7171

     82  C    Isotropic =   145.8219   Anisotropy =    34.8020

     83  H    Isotropic =    30.2546   Anisotropy =     8.1616

     84  H    Isotropic =    31.3516   Anisotropy =     7.2203

     85  C    Isotropic =   165.4122   Anisotropy =    34.7948

     86  H    Isotropic =    31.2902   Anisotropy =     6.4302

     87  H    Isotropic =    30.3408   Anisotropy =    12.3194

     88  H    Isotropic =    30.8331   Anisotropy =    10.1320

     89  C    Isotropic =   143.5748   Anisotropy =    34.9200

     90  H    Isotropic =    29.2878   Anisotropy =    12.0685

     91  H    Isotropic =    30.7474   Anisotropy =     7.1275

     92  C    Isotropic =   145.9479   Anisotropy =    30.5447

     93  H    Isotropic =    30.8252   Anisotropy =     8.9725

     94  H    Isotropic =    31.0495   Anisotropy =     6.7066

     95  C    Isotropic =   165.7096   Anisotropy =    36.0986

     96  H    Isotropic =    30.4783   Anisotropy =    12.2272

     97  H    Isotropic =    31.0005   Anisotropy =    10.6960

     98  H    Isotropic =    31.3737   Anisotropy =     7.5342

 The electronic state is 1-A.
 Alpha  occ. eigenvalues -- ********************-427.52405-414.85456-414.85389
 Alpha  occ. eigenvalues -- -414.85163-149.61394-141.89249-141.89141-141.89127
 Alpha  occ. eigenvalues -- -100.53900-100.50440 -99.90487 -92.06305 -92.06236
 Alpha  occ. eigenvalues --  -92.05894 -79.02185 -79.02079 -79.01898 -79.01849
 Alpha  occ. eigenvalues --  -79.01803 -76.31463 -76.30763 -28.77723 -25.12511
 Alpha  occ. eigenvalues --  -25.12188 -25.12144 -20.82006 -17.67314 -17.67254
 Alpha  occ. eigenvalues --  -17.67227 -17.67011 -17.67005 -17.38780 -17.38629
 Alpha  occ. eigenvalues --  -17.37927 -11.57152 -11.56775 -11.56426 -11.56312
 Alpha  occ. eigenvalues --  -11.56230  -9.92742  -9.92552  -9.91894  -9.91889
 Alpha  occ. eigenvalues --   -9.91827  -9.91340  -9.91338  -9.91222  -9.91166
 Alpha  occ. eigenvalues --   -9.91075  -9.91001  -9.90917  -9.90843  -9.90803
 Alpha  occ. eigenvalues --   -9.90685  -9.90561  -9.90528  -9.90518  -9.90498
 Alpha  occ. eigenvalues --   -9.90415  -9.90371  -9.90364  -9.90289  -9.90284
 Alpha  occ. eigenvalues --   -9.90267  -9.90246  -9.90220  -9.90195  -9.90175
 Alpha  occ. eigenvalues --   -9.90170  -9.90135  -9.90065  -9.90050  -9.90034
 Alpha  occ. eigenvalues --   -9.90011  -9.90010  -9.88078  -9.87997  -9.87975
 Alpha  occ. eigenvalues --   -9.87786  -9.87473  -9.87471  -9.87065  -9.87026
 Alpha  occ. eigenvalues --   -9.11723  -9.08315  -6.95474  -6.94955  -6.94906
 Alpha  occ. eigenvalues --   -6.92015  -6.91576  -6.91509  -6.34418  -6.33766
 Alpha  occ. eigenvalues --   -4.56982  -4.56943  -4.56649  -4.56315  -4.56301
 Alpha  occ. eigenvalues --   -4.55992  -4.46378  -3.20129  -3.19506  -3.19406
 Alpha  occ. eigenvalues --   -3.12018  -3.11996  -3.11604  -3.11333  -3.11236
 Alpha  occ. eigenvalues --   -3.11131  -3.11106  -2.85060  -1.80285  -1.79531
 Alpha  occ. eigenvalues --   -1.77602  -0.99116  -0.98780  -0.98726  -0.98340
 Alpha  occ. eigenvalues --   -0.98283  -0.79953  -0.79445  -0.79291  -0.78643
 Alpha  occ. eigenvalues --   -0.78636  -0.78429  -0.71772  -0.71509  -0.71377
 Alpha  occ. eigenvalues --   -0.71130  -0.69320  -0.69315  -0.69165  -0.68792
 Alpha  occ. eigenvalues --   -0.68669  -0.68509  -0.68327  -0.68297  -0.68167
 Alpha  occ. eigenvalues --   -0.67950  -0.67904  -0.65781  -0.64582  -0.64259
 Alpha  occ. eigenvalues --   -0.60919  -0.60342  -0.56345  -0.56075  -0.55983
 Alpha  occ. eigenvalues --   -0.55806  -0.55465  -0.55394  -0.55314  -0.54969
 Alpha  occ. eigenvalues --   -0.54892  -0.54726  -0.54408  -0.54377  -0.52070
 Alpha  occ. eigenvalues --   -0.51430  -0.50941  -0.50729  -0.47869  -0.47648
 Alpha  occ. eigenvalues --   -0.47320  -0.47208  -0.45956  -0.45403  -0.42473
 Alpha  occ. eigenvalues --   -0.42034  -0.41886  -0.41777  -0.41621  -0.41550
 Alpha  occ. eigenvalues --   -0.41424  -0.41108  -0.40732  -0.40693  -0.40465
 Alpha  occ. eigenvalues --   -0.40396  -0.40249  -0.40004  -0.39134  -0.38840
 Alpha  occ. eigenvalues --   -0.38324  -0.38251  -0.38177  -0.38104  -0.38011
 Alpha  occ. eigenvalues --   -0.37993  -0.37676  -0.37539  -0.37438  -0.37186
 Alpha  occ. eigenvalues --   -0.36967  -0.36935  -0.36784  -0.36305  -0.34914
 Alpha  occ. eigenvalues --   -0.34611  -0.34254  -0.34083  -0.34024  -0.33810
 Alpha  occ. eigenvalues --   -0.33546  -0.33379  -0.33157  -0.32331  -0.32164
 Alpha  occ. eigenvalues --   -0.31732  -0.31607  -0.31337  -0.31205  -0.30989
 Alpha  occ. eigenvalues --   -0.30882  -0.30744  -0.30650  -0.30447  -0.29972
 Alpha  occ. eigenvalues --   -0.29736  -0.29510  -0.29469  -0.29159  -0.28585
 Alpha  occ. eigenvalues --   -0.28141  -0.28004  -0.27923  -0.27642  -0.27204
 Alpha  occ. eigenvalues --   -0.26647  -0.25906  -0.25745  -0.25584  -0.25502
 Alpha  occ. eigenvalues --   -0.24938  -0.24719  -0.24593  -0.24475  -0.24356
 Alpha  occ. eigenvalues --   -0.24216  -0.23827  -0.23783  -0.23583  -0.23211
 Alpha  occ. eigenvalues --   -0.23185  -0.22121  -0.21585  -0.21129  -0.20734
 Alpha  occ. eigenvalues --   -0.20574  -0.19482
 Alpha virt. eigenvalues --   -0.09168  -0.07771  -0.06964  -0.06616  -0.06292
 Alpha virt. eigenvalues --   -0.06066  -0.05910  -0.05689  -0.05437  -0.05345
 Alpha virt. eigenvalues --   -0.04977  -0.04549  -0.04406  -0.03510  -0.02496

 Mulliken charges:
               1
     1  Pt   0.213786
     2  P    1.019951
     3  C   -0.957643
     4  C    0.311624
     5  C    0.537362
     6  C   -0.178403
     7  H    0.075169
     8  C   -0.023614
     9  H    0.076484
    10  C   -0.551803
    11  H    0.140038
    12  H    0.118393
    13  H    0.146825
    14  C   -0.837764
    15  C    0.245410
    16  C    0.618097
    17  C   -0.301826
    18  H    0.094526
    19  C   -0.012808
    20  H    0.064553
    21  C   -0.573041
    22  H    0.141767
    23  H    0.142822
    24  H    0.156285
    25  C   -0.856583
    26  C    0.384912
    27  C    0.342118
    28  C    0.058490
    29  H    0.094538
    30  C   -0.306087
    31  H    0.092913
    32  C   -0.631991
    33  H    0.143807
    34  H    0.142731
    35  H    0.154466
    36  Sn   0.060340
    37  C   -0.273699
    38  H    0.072081
    39  H    0.059773
    40  C   -0.104317
    41  H    0.036236
    42  H    0.038044
    43  Cl  -0.507034
    44  P    0.967536
    45  C   -0.819966
    46  C    0.341930
    47  C    0.290865
    48  C   -0.088042
    49  H    0.090317
    50  C   -0.129431
    51  H    0.108926
    52  C   -0.561249
    53  H    0.147980
    54  H    0.146222
    55  H    0.150251
    56  C   -0.504221
    57  C    0.106276
    58  C    0.266369
    59  C   -0.107239
    60  H    0.086877
    61  C    0.016647
    62  H    0.064867
    63  C   -0.614870
    64  H    0.145698
    65  H    0.138960
    66  H    0.149241
    67  C   -0.268748
    68  C    0.017063
    69  C    0.292591
    70  C   -0.179949
    71  H    0.071100
    72  C   -0.076382
    73  H    0.061441
    74  C   -0.532999
    75  H    0.143788
    76  H    0.139254
    77  H    0.149290
    78  Cl  -0.240174
    79  C   -0.000457
    80  H    0.087785
    81  H    0.025676
    82  C   -0.063338
    83  H    0.086109
    84  H    0.025018
    85  C   -0.341290
    86  H    0.121253
    87  H    0.142279
    88  H    0.143197
    89  C   -0.141032
    90  H    0.106731
    91  H    0.057256
    92  C   -0.105944
    93  H    0.060205
    94  H    0.097430
    95  C   -0.351715
    96  H    0.140437
    97  H    0.144591
    98  H    0.128661
 Sum of Mulliken charges =   0.00000

 Dipole moment (field-independent basis, Debye):
    X=              3.3790    Y=              1.6315    Z=             -3.0760  Tot=              4.8519
 Quadrupole moment (field-independent basis, Debye-Ang):
   XX=           -320.5873   YY=           -389.2443   ZZ=           -332.0896
   XY=             13.7830   XZ=              5.0833   YZ=            -10.7842

 Normal termination of Gaussian 09 at Wed Nov 27 00:26:03 2019.
