 Gaussian 09, Revision D.01,
 Gaussian 09:  EM64L-G09RevD.01 24-Apr-2013

 ----------------------------------------------------------------------
 #PBEPBE/gen scf=(maxcycle=500,conver=4) NMR=GIAO Scrf=(solvent=Dichlor
 omethane)
 ----------------------------------------------------------------------

 ------------
 estrutura 87
 ------------
 Symbolic Z-matrix:
 Charge =  0 Multiplicity = 1

                         Standard orientation:
 ---------------------------------------------------------------------
 Center     Atomic      Atomic             Coordinates (Angstroms)
 Number     Number       Type             X           Y           Z
 ---------------------------------------------------------------------
      1         78           0        0.242968   -0.433802   -0.005342
      2          6           0        0.353879   -2.515751   -0.043316
      3          6           0        0.427458   -3.208174   -1.266871
      4          6           0        0.365415   -3.288167    1.131928
      5          6           0        0.551456   -4.602011   -1.315108
      6          1           0        0.383019   -2.659438   -2.210220
      7          6           0        0.484479   -4.683291    1.091345
      8          1           0        0.288299   -2.799303    2.106008
      9          6           0        0.587343   -5.348626   -0.133535
     10          1           0        0.614597   -5.104126   -2.284973
     11          1           0        0.496305   -5.251111    2.026224
     12          1           0        0.683824   -6.437356   -0.168261
     13         15           0        2.672905   -0.560037    0.302604
     14         15           0        0.018021    2.022653   -0.158854
     15          6           0        3.500538   -1.337173   -1.153102
     16          6           0        4.803471   -1.867667   -1.098713
     17          6           0        2.842488   -1.286243   -2.395938
     18          6           0        5.401643   -2.390042   -2.247372
     19          1           0        5.370299   -1.861313   -0.164265
     20          6           0        3.454751   -1.780449   -3.551815
     21          1           0        1.850314   -0.839140   -2.463721
     22          6           0        4.728204   -2.353826   -3.474688
     23          1           0        6.407176   -2.820980   -2.180707
     24          1           0        2.934157   -1.717577   -4.511929
     25          1           0        5.201365   -2.754595   -4.373943
     26          6           0        2.997834   -1.582950    1.816964
     27          6           0        2.415427   -1.143148    3.021949
     28          6           0        3.721381   -2.786437    1.832163
     29          6           0        2.590355   -1.853845    4.211091
     30          1           0        1.794436   -0.246908    3.035360
     31          6           0        3.891147   -3.502414    3.022737
     32          1           0        4.143314   -3.198183    0.917631
     33          6           0        3.335651   -3.037556    4.216806
     34          1           0        2.128579   -1.486714    5.131160
     35          1           0        4.455820   -4.438278    3.007530
     36          1           0        3.470665   -3.600304    5.143710
     37          6           0        3.761416    0.934459    0.553499
     38          6           0        4.479628    1.460919   -0.535570
     39          6           0        3.897397    1.559793    1.806281
     40          6           0        5.324903    2.561834   -0.370755
     41          1           0        4.393280    1.009752   -1.524239
     42          6           0        4.737893    2.664747    1.966779
     43          1           0        3.364774    1.184918    2.678592
     44          6           0        5.460122    3.167762    0.880445
     45          1           0        5.879056    2.944610   -1.231224
     46          1           0        4.831856    3.127846    2.952111
     47          1           0        6.124718    4.025659    1.009647
     48          6           0       -1.617779    2.806247   -0.607911
     49          6           0       -1.960724    3.149927   -1.926623
     50          6           0       -2.538002    3.086065    0.419303
     51          6           0       -3.181325    3.771882   -2.206498
     52          1           0       -1.274976    2.950777   -2.749661
     53          6           0       -3.755171    3.711225    0.137378
     54          1           0       -2.305934    2.830008    1.454553
     55          6           0       -4.080764    4.059474   -1.176908
     56          1           0       -3.424731    4.034399   -3.239402
     57          1           0       -4.450223    3.925288    0.952798
     58          1           0       -5.030931    4.552149   -1.397004
     59          6           0        1.125209    2.643050   -1.502813
     60          6           0        2.021614    3.714492   -1.377477
     61          6           0        1.027330    1.985903   -2.744989
     62          6           0        2.773907    4.141809   -2.477564
     63          1           0        2.157856    4.217279   -0.420655
     64          6           0        1.774855    2.418365   -3.843261
     65          1           0        0.355762    1.130593   -2.856658
     66          6           0        2.646302    3.504900   -3.713763
     67          1           0        3.468601    4.976470   -2.359895
     68          1           0        1.675778    1.902895   -4.801305
     69          1           0        3.230835    3.846151   -4.571961
     70          6           0        0.372834    2.957138    1.393793
     71          6           0        0.416658    4.363984    1.436359
     72          6           0        0.460112    2.243650    2.598860
     73          6           0        0.596112    5.029846    2.650271
     74          1           0        0.285154    4.950106    0.524771
     75          6           0        0.624316    2.911095    3.817699
     76          1           0        0.367885    1.155561    2.580276
     77          6           0        0.704875    4.305286    3.843729
     78          1           0        0.634973    6.121878    2.666389
     79          1           0        0.682806    2.338285    4.746686
     80          1           0        0.835612    4.830595    4.793007
     81         50           0       -2.366912   -0.882677   -0.192036
     82          6           0       -3.926102   -0.055248    1.105073
     83          6           0       -5.218126    0.228879    0.637478
     84          6           0       -3.639671    0.130680    2.467498
     85          6           0       -6.205422    0.691937    1.515926
     86          1           0       -5.461068    0.096313   -0.420608
     87          6           0       -4.627820    0.590523    3.348569
     88          1           0       -2.639847   -0.082651    2.861224
     89          6           0       -5.912644    0.873144    2.872605
     90          1           0       -7.208311    0.912455    1.139230
     91          1           0       -4.393285    0.726596    4.408072
     92          1           0       -6.685750    1.232389    3.558144
     93         35           0       -3.271637   -3.337156   -0.075551
     94         35           0       -3.259079   -0.376266   -2.601361
 ---------------------------------------------------------------------

 SCF Done:  E(RPBE-PBE) =  -30761.2664796     A.U. after   24 cycles

      1  Pt   Isotropic =  2960.6729   Anisotropy =  1867.5973

      2  C    Isotropic =     6.3358   Anisotropy =   188.3500

      3  C    Isotropic =    35.9460   Anisotropy =   174.2938

      4  C    Isotropic =    36.4975   Anisotropy =   172.2394

      5  C    Isotropic =    52.6940   Anisotropy =   170.4014

      6  H    Isotropic =    23.5922   Anisotropy =    12.3113

      7  C    Isotropic =    50.7833   Anisotropy =   168.0445

      8  H    Isotropic =    25.0399   Anisotropy =     9.5238

      9  C    Isotropic =    57.5225   Anisotropy =   176.4524

     10  H    Isotropic =    24.4579   Anisotropy =     6.1665

     11  H    Isotropic =    24.8128   Anisotropy =     6.0913

     12  H    Isotropic =    24.5812   Anisotropy =     3.1530

     13  P    Isotropic =   274.3127   Anisotropy =    65.8791

     14  P    Isotropic =   272.7796   Anisotropy =    66.0723

     15  C    Isotropic =    45.7741   Anisotropy =   161.1898

     16  C    Isotropic =    44.4288   Anisotropy =   182.3647

     17  C    Isotropic =    35.6438   Anisotropy =   181.9775

     18  C    Isotropic =    48.5769   Anisotropy =   178.8097

     19  H    Isotropic =    23.9838   Anisotropy =    12.0846

     20  C    Isotropic =    49.7925   Anisotropy =   181.5659

     21  H    Isotropic =    22.6405   Anisotropy =    13.6774

     22  C    Isotropic =    49.9578   Anisotropy =   201.4583

     23  H    Isotropic =    23.6843   Anisotropy =     5.6979

     24  H    Isotropic =    23.3298   Anisotropy =     8.8833

     25  H    Isotropic =    23.4876   Anisotropy =     4.6080

     26  C    Isotropic =    40.7826   Anisotropy =   167.3764

     27  C    Isotropic =    45.4159   Anisotropy =   175.1346

     28  C    Isotropic =    47.6582   Anisotropy =   189.6789

     29  C    Isotropic =    48.9017   Anisotropy =   178.8886

     30  H    Isotropic =    22.3039   Anisotropy =    11.4581

     31  C    Isotropic =    49.0913   Anisotropy =   179.7273

     32  H    Isotropic =    24.0622   Anisotropy =    11.0342

     33  C    Isotropic =    48.6972   Anisotropy =   188.5307

     34  H    Isotropic =    23.0838   Anisotropy =     7.8768

     35  H    Isotropic =    23.9853   Anisotropy =     5.8578

     36  H    Isotropic =    23.5320   Anisotropy =     3.8010

     37  C    Isotropic =    35.6811   Anisotropy =   184.8683

     38  C    Isotropic =    43.8965   Anisotropy =   195.1348

     39  C    Isotropic =    47.5581   Anisotropy =   193.3922

     40  C    Isotropic =    48.9402   Anisotropy =   180.2673

     41  H    Isotropic =    26.2817   Anisotropy =    11.3532

     42  C    Isotropic =    49.5105   Anisotropy =   182.4928

     43  H    Isotropic =    23.5100   Anisotropy =     9.2814

     44  C    Isotropic =    44.0644   Anisotropy =   180.6570

     45  H    Isotropic =    24.8690   Anisotropy =     6.1815

     46  H    Isotropic =    24.5216   Anisotropy =     7.1351

     47  H    Isotropic =    24.3851   Anisotropy =     3.2865

     48  C    Isotropic =    34.0752   Anisotropy =   177.6940

     49  C    Isotropic =    47.1596   Anisotropy =   193.0272

     50  C    Isotropic =    46.2814   Anisotropy =   192.8946

     51  C    Isotropic =    49.8510   Anisotropy =   178.7855

     52  H    Isotropic =    23.8367   Anisotropy =    11.9935

     53  C    Isotropic =    53.3942   Anisotropy =   180.5831

     54  H    Isotropic =    25.5555   Anisotropy =    11.2417

     55  C    Isotropic =    53.5217   Anisotropy =   186.6538

     56  H    Isotropic =    24.0726   Anisotropy =     6.7187

     57  H    Isotropic =    25.2409   Anisotropy =     6.1424

     58  H    Isotropic =    24.3011   Anisotropy =     3.3189

     59  C    Isotropic =    44.0950   Anisotropy =   169.0707

     60  C    Isotropic =    48.2645   Anisotropy =   187.6865

     61  C    Isotropic =    43.3747   Anisotropy =   183.3771

     62  C    Isotropic =    47.8767   Anisotropy =   181.0653

     63  H    Isotropic =    24.6323   Anisotropy =     8.8086

     64  C    Isotropic =    48.8240   Anisotropy =   180.7830

     65  H    Isotropic =    22.6383   Anisotropy =    11.8543

     66  C    Isotropic =    48.4620   Anisotropy =   177.7654

     67  H    Isotropic =    24.2916   Anisotropy =     5.5504

     68  H    Isotropic =    23.3898   Anisotropy =     7.4306

     69  H    Isotropic =    23.9486   Anisotropy =     3.3904

     70  C    Isotropic =    40.3652   Anisotropy =   178.2691

     71  C    Isotropic =    42.3526   Anisotropy =   188.8844

     72  C    Isotropic =    37.9484   Anisotropy =   173.5768

     73  C    Isotropic =    49.7052   Anisotropy =   185.4567

     74  H    Isotropic =    24.1292   Anisotropy =    11.6624

     75  C    Isotropic =    48.9205   Anisotropy =   183.0567

     76  H    Isotropic =    22.0310   Anisotropy =    14.0055

     77  C    Isotropic =    47.1485   Anisotropy =   192.0635

     78  H    Isotropic =    23.7345   Anisotropy =     5.6340

     79  H    Isotropic =    23.1681   Anisotropy =     8.0939

     80  H    Isotropic =    23.4620   Anisotropy =     4.0574

     81  Sn   Isotropic =  1970.9930   Anisotropy =   773.2899

     82  C    Isotropic =    26.0308   Anisotropy =   209.5586

     83  C    Isotropic =    44.8061   Anisotropy =   181.4707

     84  C    Isotropic =    46.3953   Anisotropy =   178.1255

     85  C    Isotropic =    45.9584   Anisotropy =   171.4043

     86  H    Isotropic =    23.8840   Anisotropy =    13.4564

     87  C    Isotropic =    49.4125   Anisotropy =   175.4889

     88  H    Isotropic =    23.5375   Anisotropy =    12.4267

     89  C    Isotropic =    48.8618   Anisotropy =   180.3906

     90  H    Isotropic =    23.9596   Anisotropy =     5.9336

     91  H    Isotropic =    23.8522   Anisotropy =     7.6729

     92  H    Isotropic =    23.8331   Anisotropy =     3.9490

     93  Br   Isotropic =  2370.3993   Anisotropy =   527.5708

     94  Br   Isotropic =  2448.4020   Anisotropy =   477.3808

 The electronic state is 1-A.
 Alpha  occ. eigenvalues -- ********************-478.58885-478.58158-427.53022
 Alpha  occ. eigenvalues -- -414.86087-414.86005-414.85783-149.63059-141.90894
 Alpha  occ. eigenvalues -- -141.90857-141.90756 -99.91063 -92.06938 -92.06757
 Alpha  occ. eigenvalues --  -92.06478 -79.02785 -79.02663 -79.02506 -79.02419
 Alpha  occ. eigenvalues --  -79.02386 -76.31392 -76.31071 -61.50728 -61.50005
 Alpha  occ. eigenvalues --  -55.69151 -55.68945 -55.68941 -55.68430 -55.68229
 Alpha  occ. eigenvalues --  -55.68210 -28.79441 -25.14170 -25.14058 -25.13756
 Alpha  occ. eigenvalues --  -20.82535 -17.69036 -17.69027 -17.68828 -17.68752
 Alpha  occ. eigenvalues --  -17.68704 -17.39406 -17.39062 -17.38456 -11.57717
 Alpha  occ. eigenvalues --  -11.57303 -11.56968 -11.56815 -11.56739  -9.92632
 Alpha  occ. eigenvalues --   -9.92622  -9.92520  -9.92486  -9.92350  -9.92031
 Alpha  occ. eigenvalues --   -9.91461  -9.91418  -9.91237  -9.91149  -9.91144
 Alpha  occ. eigenvalues --   -9.91119  -9.91094  -9.91023  -9.90983  -9.90947
 Alpha  occ. eigenvalues --   -9.90860  -9.90843  -9.90757  -9.90733  -9.90711
 Alpha  occ. eigenvalues --   -9.90710  -9.90688  -9.90654  -9.90623  -9.90598
 Alpha  occ. eigenvalues --   -9.90595  -9.90541  -9.90448  -9.90424  -9.90368
 Alpha  occ. eigenvalues --   -9.90357  -9.90307  -9.90079  -9.90052  -9.90023
 Alpha  occ. eigenvalues --   -9.89899  -9.89720  -9.89679  -9.89675  -9.89570
 Alpha  occ. eigenvalues --   -9.89518  -9.89449  -9.88560  -9.88519  -9.88392
 Alpha  occ. eigenvalues --   -9.88294  -9.88209  -8.33575  -8.32855  -6.34279
 Alpha  occ. eigenvalues --   -6.33992  -6.24280  -6.23681  -6.23671  -6.23566
 Alpha  occ. eigenvalues --   -6.22981  -6.22927  -4.56853  -4.56827  -4.56580
 Alpha  occ. eigenvalues --   -4.56546  -4.56490  -4.56172  -4.48141  -3.21768
 Alpha  occ. eigenvalues --   -3.21567  -3.20990  -3.12581  -3.12520  -3.12149
 Alpha  occ. eigenvalues --   -3.11847  -3.11751  -3.11636  -3.11610  -2.85491
 Alpha  occ. eigenvalues --   -2.45261  -2.45106  -2.45098  -2.44654  -2.44654
 Alpha  occ. eigenvalues --   -2.44547  -2.44404  -2.44365  -2.43932  -2.43931
 Alpha  occ. eigenvalues --   -1.80517  -1.80137  -1.78007  -1.00787  -1.00647
 Alpha  occ. eigenvalues --   -1.00200  -1.00161  -1.00054  -0.80071  -0.79889
 Alpha  occ. eigenvalues --   -0.79307  -0.79149  -0.78873  -0.78646  -0.77688
 Alpha  occ. eigenvalues --   -0.76520  -0.71820  -0.71691  -0.69380  -0.69263
 Alpha  occ. eigenvalues --   -0.69169  -0.69067  -0.68793  -0.68684  -0.68441
 Alpha  occ. eigenvalues --   -0.68324  -0.68264  -0.68141  -0.67576  -0.67433
 Alpha  occ. eigenvalues --   -0.66539  -0.66350  -0.66069  -0.65606  -0.60895
 Alpha  occ. eigenvalues --   -0.60711  -0.56517  -0.56295  -0.56072  -0.55933
 Alpha  occ. eigenvalues --   -0.55388  -0.55169  -0.54973  -0.54918  -0.54816
 Alpha  occ. eigenvalues --   -0.54699  -0.54294  -0.53514  -0.53168  -0.52541
 Alpha  occ. eigenvalues --   -0.52065  -0.51873  -0.47976  -0.47660  -0.47591
 Alpha  occ. eigenvalues --   -0.47515  -0.46635  -0.46129  -0.45877  -0.45283
 Alpha  occ. eigenvalues --   -0.42418  -0.42271  -0.42178  -0.42012  -0.41449
 Alpha  occ. eigenvalues --   -0.41399  -0.41323  -0.41231  -0.40991  -0.40806
 Alpha  occ. eigenvalues --   -0.40643  -0.40498  -0.40334  -0.40064  -0.39284
 Alpha  occ. eigenvalues --   -0.39187  -0.39101  -0.39081  -0.38667  -0.38568
 Alpha  occ. eigenvalues --   -0.38452  -0.38340  -0.38120  -0.37850  -0.37649
 Alpha  occ. eigenvalues --   -0.37239  -0.37153  -0.36957  -0.36210  -0.36095
 Alpha  occ. eigenvalues --   -0.35780  -0.34814  -0.34658  -0.34334  -0.34282
 Alpha  occ. eigenvalues --   -0.34244  -0.33768  -0.33538  -0.33233  -0.33089
 Alpha  occ. eigenvalues --   -0.32668  -0.32027  -0.31900  -0.31665  -0.31364
 Alpha  occ. eigenvalues --   -0.31239  -0.30927  -0.30752  -0.30625  -0.30576
 Alpha  occ. eigenvalues --   -0.30079  -0.29980  -0.29763  -0.29745  -0.28946
 Alpha  occ. eigenvalues --   -0.28919  -0.27732  -0.27364  -0.26302  -0.25955
 Alpha  occ. eigenvalues --   -0.25654  -0.25288  -0.25052  -0.24877  -0.24781
 Alpha  occ. eigenvalues --   -0.24593  -0.24472  -0.24426  -0.24329  -0.24176
 Alpha  occ. eigenvalues --   -0.24159  -0.23888  -0.23564  -0.23476  -0.23348
 Alpha  occ. eigenvalues --   -0.23111  -0.22907  -0.22367  -0.21878  -0.21625
 Alpha  occ. eigenvalues --   -0.21237  -0.20236  -0.19513
 Alpha virt. eigenvalues --   -0.08367  -0.07704  -0.07357  -0.06892  -0.06658
 Alpha virt. eigenvalues --   -0.06554  -0.06330  -0.06102  -0.06014  -0.05778
 Alpha virt. eigenvalues --   -0.05485  -0.05389  -0.04898  -0.04694  -0.04529

 Mulliken charges:
               1
     1  Pt   0.683310
     2  C    0.127341
     3  C   -0.031333
     4  C   -0.043435
     5  C   -0.023103
     6  H    0.051513
     7  C   -0.048263
     8  H    0.038114
     9  C   -0.670075
    10  H    0.133178
    11  H    0.125959
    12  H    0.146920
    13  P    1.097022
    14  P    0.903581
    15  C   -0.877994
    16  C    0.244810
    17  C    0.607071
    18  C   -0.074315
    19  H    0.089184
    20  C   -0.104907
    21  H    0.024296
    22  C   -0.654444
    23  H    0.142984
    24  H    0.133877
    25  H    0.154886
    26  C   -0.734808
    27  C    0.577821
    28  C    0.118088
    29  C   -0.026642
    30  H    0.015006
    31  C   -0.118256
    32  H    0.067776
    33  C   -0.519151
    34  H    0.136602
    35  H    0.136658
    36  H    0.152467
    37  C   -1.146031
    38  C    0.438473
    39  C    0.224752
    40  C    0.029161
    41  H    0.064351
    42  C   -0.066201
    43  H    0.058105
    44  C   -0.510456
    45  H    0.117212
    46  H    0.132378
    47  H    0.140759
    48  C   -0.838429
    49  C    0.153817
    50  C    0.401051
    51  C   -0.164168
    52  H    0.076812
    53  C    0.034017
    54  H    0.080996
    55  C   -0.493394
    56  H    0.136675
    57  H    0.120773
    58  H    0.143238
    59  C   -0.870053
    60  C    0.286431
    61  C    0.528863
    62  C   -0.131805
    63  H    0.056080
    64  C    0.025643
    65  H    0.043920
    66  C   -0.525681
    67  H    0.120522
    68  H    0.132094
    69  H    0.147550
    70  C   -0.927344
    71  C    0.259062
    72  C    0.509494
    73  C    0.053193
    74  H    0.087285
    75  C   -0.187999
    76  H    0.038973
    77  C   -0.565032
    78  H    0.142193
    79  H    0.134497
    80  H    0.153459
    81  Sn  -0.231313
    82  C   -0.056599
    83  C    0.148855
    84  C    0.017319
    85  C   -0.223498
    86  H    0.120718
    87  C   -0.053283
    88  H    0.092319
    89  C   -0.446792
    90  H    0.144079
    91  H    0.150821
    92  H    0.154402
    93  Br  -0.244834
    94  Br  -0.199170
 Sum of Mulliken charges =   0.00000

 Dipole moment (field-independent basis, Debye):
    X=             13.8481    Y=             10.6760    Z=              4.2528  Tot=             17.9954
 Quadrupole moment (field-independent basis, Debye-Ang):
   XX=           -390.2684   YY=           -385.1685   ZZ=           -353.4964
   XY=            -27.4193   XZ=            -18.8208   YZ=              1.3773

 Normal termination of Gaussian 09 at Fri Oct  4 07:56:08 2019.
