 Gaussian 09, Revision D.01,
 Gaussian 09:  EM64L-G09RevD.01 24-Apr-2013

 ----------------------------------------------------------------------
 #PBEPBE/gen scf=(maxcycle=500,conver=4) NMR=GIAO Scrf=(solvent=Dichlor
 omethane)
 ----------------------------------------------------------------------

 ------------
 estrutura 40
 ------------
 Symbolic Z-matrix:
 Charge = -2 Multiplicity = 1

                         Standard orientation:
 ---------------------------------------------------------------------
 Center     Atomic      Atomic             Coordinates (Angstroms)
 Number     Number       Type             X           Y           Z
 ---------------------------------------------------------------------
      1         78           0       -0.009300   -0.570262    0.114914
      2         17           0       -0.068639   -2.965444    0.458520
      3         50           0        2.617240   -0.767587   -0.057195
      4         50           0        0.029424    2.001465    0.018643
      5         50           0       -2.637731   -0.725828   -0.056217
      6         17           0       -3.973341    1.032771   -1.083459
      7         17           0       -3.501784   -2.564823   -1.389907
      8         17           0       -3.905169   -1.082727    1.987041
      9         17           0       -0.078199    3.219724   -2.062737
     10         17           0        1.925040    3.097491    1.052472
     11         17           0       -1.685212    3.148690    1.291394
     12         17           0        3.946644   -0.775316    1.978555
     13         17           0        3.474022   -2.800813   -1.071547
     14         17           0        3.883033    0.812678   -1.408853
 ---------------------------------------------------------------------

 SCF Done:  E(RPBE-PBE) =  -39651.4779015     A.U. after    9 cycles

      1  Pt   Isotropic =  3297.0273   Anisotropy =  1623.4616

      2  Cl   Isotropic =  1071.3024   Anisotropy =   957.6685

      3  Sn   Isotropic =  2178.5526   Anisotropy =   717.5409

      4  Sn   Isotropic =  2078.5135   Anisotropy =   919.0277

      5  Sn   Isotropic =  2183.7143   Anisotropy =   711.8181

      6  Cl   Isotropic =   725.8280   Anisotropy =   355.8984

      7  Cl   Isotropic =   775.4793   Anisotropy =   311.8104

      8  Cl   Isotropic =   773.3217   Anisotropy =   340.3060

      9  Cl   Isotropic =   751.7406   Anisotropy =   354.8695

     10  Cl   Isotropic =   694.3200   Anisotropy =   376.2882

     11  Cl   Isotropic =   703.4133   Anisotropy =   376.1742

     12  Cl   Isotropic =   768.8611   Anisotropy =   342.9770

     13  Cl   Isotropic =   783.3534   Anisotropy =   294.6829

     14  Cl   Isotropic =   727.8399   Anisotropy =   354.2699

 The electronic state is 1-A.
 Alpha  occ. eigenvalues -- ****************************************-427.52160
 Alpha  occ. eigenvalues -- -414.85162-414.85160-414.84886-149.64709-149.64084
 Alpha  occ. eigenvalues -- -149.64077-141.92523-141.92520-141.92448-141.91896
 Alpha  occ. eigenvalues -- -141.91893-141.91889-141.91886-141.91827-141.91820
 Alpha  occ. eigenvalues -- -100.54738-100.54373-100.54342-100.54333-100.54325
 Alpha  occ. eigenvalues -- -100.54188-100.54137-100.54046-100.53998-100.51460
 Alpha  occ. eigenvalues --  -99.90226 -92.06049 -92.06014 -92.05577 -79.01956
 Alpha  occ. eigenvalues --  -79.01855 -79.01618 -79.01588 -79.01512 -28.81088
 Alpha  occ. eigenvalues --  -28.80467 -28.80464 -25.15723 -25.15715 -25.15486
 Alpha  occ. eigenvalues --  -25.15097 -25.15095 -25.15088 -25.15083 -25.14877
 Alpha  occ. eigenvalues --  -25.14873 -20.81696 -17.70618 -17.70617 -17.70461
 Alpha  occ. eigenvalues --  -17.70457 -17.70413 -17.69989 -17.69988 -17.69985
 Alpha  occ. eigenvalues --  -17.69984 -17.69845 -17.69843 -17.69841 -17.69836
 Alpha  occ. eigenvalues --  -17.69798 -17.69795 -17.38471 -17.38415 -17.37506
 Alpha  occ. eigenvalues --  -11.56903 -11.56543 -11.56065 -11.55991 -11.55831
 Alpha  occ. eigenvalues --   -9.12594  -9.12206  -9.12197  -9.12189  -9.12177
 Alpha  occ. eigenvalues --   -9.12030  -9.11985  -9.11882  -9.11838  -9.09291
 Alpha  occ. eigenvalues --   -6.96402  -6.95999  -6.95994  -6.95988  -6.95968
 Alpha  occ. eigenvalues --   -6.95831  -6.95785  -6.95774  -6.95765  -6.95666
 Alpha  occ. eigenvalues --   -6.95619  -6.95396  -6.95388  -6.95386  -6.95378
 Alpha  occ. eigenvalues --   -6.95369  -6.95368  -6.95359  -6.95357  -6.95224
 Alpha  occ. eigenvalues --   -6.95199  -6.95179  -6.95153  -6.95085  -6.95062
 Alpha  occ. eigenvalues --   -6.95040  -6.95018  -6.93061  -6.92513  -6.92464
 Alpha  occ. eigenvalues --   -4.49799  -4.49184  -4.49179  -3.23231  -3.23220
 Alpha  occ. eigenvalues --   -3.22851  -3.22611  -3.22605  -3.22595  -3.22592
 Alpha  occ. eigenvalues --   -3.22250  -3.22246  -3.11772  -3.11771  -3.11282
 Alpha  occ. eigenvalues --   -3.11030  -3.10845  -3.10786  -3.10716  -2.84720
 Alpha  occ. eigenvalues --   -1.79694  -1.79667  -1.77086  -1.02298  -1.02285
 Alpha  occ. eigenvalues --   -1.01902  -1.01896  -1.01840  -1.01668  -1.01667
 Alpha  occ. eigenvalues --   -1.01643  -1.01640  -1.01310  -1.01306  -1.01267
 Alpha  occ. eigenvalues --   -1.01256  -1.01239  -1.01187  -0.71249  -0.70796
 Alpha  occ. eigenvalues --   -0.70789  -0.69641  -0.69365  -0.69251  -0.69229
 Alpha  occ. eigenvalues --   -0.69036  -0.69001  -0.66720  -0.41680  -0.40595
 Alpha  occ. eigenvalues --   -0.40222  -0.32552  -0.32231  -0.31549  -0.31308
 Alpha  occ. eigenvalues --   -0.31133  -0.30937  -0.30804  -0.30766  -0.28736
 Alpha  occ. eigenvalues --   -0.27709  -0.27392  -0.26947  -0.26702  -0.26583
 Alpha  occ. eigenvalues --   -0.26302  -0.26131  -0.26112  -0.26067  -0.25737
 Alpha  occ. eigenvalues --   -0.25366  -0.25305  -0.25033  -0.24867  -0.24840
 Alpha  occ. eigenvalues --   -0.24664  -0.24639  -0.24535  -0.24219  -0.23874
 Alpha  occ. eigenvalues --   -0.22708  -0.22263  -0.21079  -0.20577  -0.19008
 Alpha virt. eigenvalues --   -0.11091  -0.06127  -0.04108  -0.03872  -0.02720
 Alpha virt. eigenvalues --   -0.01378  -0.01182  -0.00522   0.00459   0.00896
 Alpha virt. eigenvalues --    0.01200   0.01942   0.02063   0.02499   0.02604

 Mulliken charges:
               1
     1  Pt  -0.069468
     2  Cl  -0.536998
     3  Sn   0.275674
     4  Sn   0.207077
     5  Sn   0.292269
     6  Cl  -0.253146
     7  Cl  -0.255265
     8  Cl  -0.249472
     9  Cl  -0.195579
    10  Cl  -0.228980
    11  Cl  -0.234939
    12  Cl  -0.247953
    13  Cl  -0.243080
    14  Cl  -0.260139
 Sum of Mulliken charges =  -2.00000

 Dipole moment (field-independent basis, Debye):
    X=              0.0351    Y=              1.2970    Z=              0.0094  Tot=              1.2975
 Quadrupole moment (field-independent basis, Debye-Ang):
   XX=           -353.2723   YY=           -317.2054   ZZ=           -269.8130
   XY=             -0.1456   XZ=             -0.0221   YZ=              0.7058

 Normal termination of Gaussian 09 at Thu May 30 14:47:58 2019.
