 Gaussian 09, Revision D.01,
 Gaussian 09:  EM64L-G09RevD.01 24-Apr-2013

 ----------------------------------------------------------------------
 #PBEPBE/gen scf=(maxcycle=500,conver=4) NMR=GIAO Scrf=(solvent=Dichlor
 omethane)
 ----------------------------------------------------------------------

 ------------
 estrutura 39
 ------------
 Symbolic Z-matrix:
 Charge = -2 Multiplicity = 1

                         Standard orientation:
 ---------------------------------------------------------------------
 Center     Atomic      Atomic             Coordinates (Angstroms)
 Number     Number       Type             X           Y           Z
 ---------------------------------------------------------------------
      1         78           0        0.001254    1.170671   -0.001298
      2         17           0        1.860651    2.748692    0.015811
      3         17           0       -1.646934    2.949681   -0.013598
      4         50           0        1.903900   -0.559159   -0.001598
      5         50           0       -1.938687   -0.518076   -0.001053
      6         17           0        3.428152   -0.560025    1.886762
      7         17           0        1.457682   -2.955586   -0.058233
      8         17           0        3.497452   -0.485067   -1.829990
      9         17           0       -2.100331   -2.078625    1.856250
     10         17           0       -2.150780   -2.034621   -1.889697
     11         17           0       -4.249329    0.212572    0.046447
 ---------------------------------------------------------------------

 SCF Done:  E(RPBE-PBE) =  -32751.4460977     A.U. after    9 cycles

      1  Pt   Isotropic =  2845.8637   Anisotropy =  1902.6369

      2  Cl   Isotropic =  1001.9108   Anisotropy =   500.2141

      3  Cl   Isotropic =   960.2098   Anisotropy =   310.1274

      4  Sn   Isotropic =  2145.5699   Anisotropy =   914.5778

      5  Sn   Isotropic =  2117.7158   Anisotropy =   950.6285

      6  Cl   Isotropic =   763.9158   Anisotropy =   346.3020

      7  Cl   Isotropic =   714.8229   Anisotropy =   370.0231

      8  Cl   Isotropic =   763.9921   Anisotropy =   344.8162

      9  Cl   Isotropic =   735.5414   Anisotropy =   368.4112

     10  Cl   Isotropic =   737.6981   Anisotropy =   368.0244

     11  Cl   Isotropic =   770.9693   Anisotropy =   304.3821

 The electronic state is 1-A.
 Alpha  occ. eigenvalues -- ******************************-427.50836-414.83846
 Alpha  occ. eigenvalues -- -414.83840-414.83546-149.64026-149.63885-141.91843
 Alpha  occ. eigenvalues -- -141.91837-141.91763-141.91699-141.91693-141.91621
 Alpha  occ. eigenvalues -- -100.54180-100.54175-100.54013-100.53987-100.53946
 Alpha  occ. eigenvalues -- -100.53851-100.50398-100.50191 -99.88902 -92.04724
 Alpha  occ. eigenvalues --  -92.04713 -92.04230 -79.00660 -79.00534 -79.00274
 Alpha  occ. eigenvalues --  -79.00265 -79.00176 -28.80406 -28.80292 -25.15050
 Alpha  occ. eigenvalues --  -25.15034 -25.14935 -25.14914 -25.14794 -25.14683
 Alpha  occ. eigenvalues --  -20.80373 -17.69942 -17.69941 -17.69821 -17.69820
 Alpha  occ. eigenvalues --  -17.69778 -17.69769 -17.69723 -17.69663 -17.69649
 Alpha  occ. eigenvalues --  -17.69608 -17.37155 -17.37135 -17.36133 -11.55665
 Alpha  occ. eigenvalues --  -11.55210 -11.54688 -11.54669 -11.54485  -9.12025
 Alpha  occ. eigenvalues --   -9.12021  -9.11862  -9.11836  -9.11797  -9.11686
 Alpha  occ. eigenvalues --   -9.08251  -9.08031  -6.95828  -6.95823  -6.95650
 Alpha  occ. eigenvalues --   -6.95624  -6.95603  -6.95469  -6.95214  -6.95209
 Alpha  occ. eigenvalues --   -6.95194  -6.95192  -6.95059  -6.95038  -6.95034
 Alpha  occ. eigenvalues --   -6.95012  -6.94989  -6.94959  -6.94885  -6.94871
 Alpha  occ. eigenvalues --   -6.91994  -6.91781  -6.91472  -6.91448  -6.91274
 Alpha  occ. eigenvalues --   -6.91203  -4.49117  -4.49042  -3.22566  -3.22537
 Alpha  occ. eigenvalues --   -3.22484  -3.22464  -3.22150  -3.22087  -3.10505
 Alpha  occ. eigenvalues --   -3.10500  -3.09979  -3.09663  -3.09469  -3.09453
 Alpha  occ. eigenvalues --   -3.09366  -2.83390  -1.78438  -1.78332  -1.75652
 Alpha  occ. eigenvalues --   -1.01617  -1.01584  -1.01539  -1.01521  -1.01244
 Alpha  occ. eigenvalues --   -1.01174  -1.01156  -1.01151  -1.01140  -1.01085
 Alpha  occ. eigenvalues --   -0.70754  -0.70659  -0.69159  -0.69035  -0.68955
 Alpha  occ. eigenvalues --   -0.68850  -0.65822  -0.65302  -0.40843  -0.40187
 Alpha  occ. eigenvalues --   -0.31830  -0.31558  -0.30980  -0.30869  -0.30860
 Alpha  occ. eigenvalues --   -0.30419  -0.27821  -0.27282  -0.26986  -0.26380
 Alpha  occ. eigenvalues --   -0.26186  -0.26026  -0.25918  -0.25415  -0.25309
 Alpha  occ. eigenvalues --   -0.24841  -0.24699  -0.24633  -0.24388  -0.24150
 Alpha  occ. eigenvalues --   -0.23960  -0.23076  -0.22040  -0.20443  -0.19862
 Alpha  occ. eigenvalues --   -0.19599  -0.19540  -0.19140
 Alpha virt. eigenvalues --   -0.10308  -0.04218  -0.03502  -0.02301  -0.00434
 Alpha virt. eigenvalues --   -0.00126   0.00509   0.01015   0.02141   0.02227
 Alpha virt. eigenvalues --    0.02785   0.02896   0.03015   0.03181   0.04556

 Mulliken charges:
               1
     1  Pt   0.118870
     2  Cl  -0.571026
     3  Cl  -0.576956
     4  Sn   0.288175
     5  Sn   0.270606
     6  Cl  -0.259916
     7  Cl  -0.254581
     8  Cl  -0.260710
     9  Cl  -0.267468
    10  Cl  -0.265970
    11  Cl  -0.221025
 Sum of Mulliken charges =  -2.00000

 Dipole moment (field-independent basis, Debye):
    X=             -0.0486    Y=             -2.9174    Z=             -0.0291  Tot=              2.9179
 Quadrupole moment (field-independent basis, Debye-Ang):
   XX=           -269.6948   YY=           -254.0958   ZZ=           -208.8537
   XY=             -0.2199   XZ=             -0.0513   YZ=             -0.0138

 Normal termination of Gaussian 09 at Thu May 30 13:30:03 2019.
