 Gaussian 09, Revision D.01,
 Gaussian 09:  EM64L-G09RevD.01 24-Apr-2013

 ----------------------------------------------------------------------
 #PBEPBE/gen scf=(maxcycle=500,conver=4) NMR=GIAO scrf=(solvent=Dichlor
 omethane)
 ----------------------------------------------------------------------

 -----------
 estrutura 1
 -----------
 Symbolic Z-matrix:
 Charge =  0 Multiplicity = 1

                         Standard orientation:
 ---------------------------------------------------------------------
 Center     Atomic      Atomic             Coordinates (Angstroms)
 Number     Number       Type             X           Y           Z
 ---------------------------------------------------------------------
      1         78           0        0.008478   -0.806757   -0.022433
      2         50           0        0.367747    1.744482   -0.035943
      3         15           0        2.354835   -1.356642   -0.162179
      4         15           0       -2.395694   -0.547253   -0.014320
      5         17           0        1.918929    2.812377   -1.558637
      6         17           0        1.106312    2.630848    2.089268
      7         17           0       -1.492940    3.262831   -0.375499
      8         17           0       -0.210409   -3.200610    0.352046
      9          6           0        3.732234   -0.135342   -0.443150
     10          1           0        3.497980    0.433648   -1.355649
     11          1           0        4.592147   -0.786829   -0.679515
     12          6           0        4.094699    0.814340    0.704067
     13          1           0        3.444817    1.703402    0.726734
     14          1           0        4.028769    0.324222    1.686937
     15          1           0        5.133226    1.166842    0.585181
     16          6           0        2.947719   -2.333315    1.304898
     17          1           0        2.660831   -3.378616    1.107316
     18          1           0        4.052180   -2.289032    1.281837
     19          6           0        2.401362   -1.893691    2.667683
     20          1           0        2.573638   -0.828429    2.872832
     21          1           0        1.321368   -2.076553    2.720334
     22          1           0        2.884590   -2.473975    3.470393
     23          6           0        2.592386   -2.512839   -1.591121
     24          1           0        3.643404   -2.850401   -1.556989
     25          1           0        1.955994   -3.383224   -1.369720
     26          6           0        2.244449   -1.928748   -2.963365
     27          1           0        2.402978   -2.690577   -3.743777
     28          1           0        1.188688   -1.618066   -3.006781
     29          1           0        2.865020   -1.056429   -3.221589
     30          6           0       -3.278489   -2.182679    0.005667
     31          1           0       -2.615216   -2.863026   -0.543948
     32          1           0       -3.245462   -2.534139    1.048443
     33          6           0       -4.696206   -2.258255   -0.565294
     34          1           0       -4.709783   -2.037702   -1.642965
     35          1           0       -5.077600   -3.284357   -0.444849
     36          1           0       -5.410773   -1.585383   -0.071432
     37          6           0       -3.011928    0.308961   -1.551428
     38          1           0       -3.073187   -0.485032   -2.314621
     39          1           0       -2.211332    0.986311   -1.876395
     40          6           0       -4.326672    1.091862   -1.456584
     41          1           0       -4.615099    1.436182   -2.459485
     42          1           0       -5.163396    0.493250   -1.068920
     43          1           0       -4.208342    1.986047   -0.822489
     44          6           0       -2.974857    0.418299    1.476801
     45          1           0       -2.179446    0.293110    2.229510
     46          1           0       -2.956608    1.478331    1.174735
     47          6           0       -4.331657    0.056440    2.088249
     48          1           0       -5.168760    0.250357    1.401345
     49          1           0       -4.379062   -0.998760    2.397172
     50          1           0       -4.497761    0.667429    2.990163
 ---------------------------------------------------------------------

 SCF Done:  E(RPBE-PBE) =  -26088.5029223     A.U. after    8 cycles

      1  Pt   Isotropic =  3146.1571   Anisotropy =  1842.8070

      2  Sn   Isotropic =  2068.4224   Anisotropy =   942.0368

      3  P    Isotropic =   257.1988   Anisotropy =    89.0485

      4  P    Isotropic =   274.1324   Anisotropy =    54.6632

      5  Cl   Isotropic =   751.1317   Anisotropy =   355.4476

      6  Cl   Isotropic =   718.5670   Anisotropy =   354.0112

      7  Cl   Isotropic =   731.2131   Anisotropy =   300.9226

      8  Cl   Isotropic =   916.1661   Anisotropy =   289.2356

      9  C    Isotropic =   151.7582   Anisotropy =    32.0510

     10  H    Isotropic =    28.5047   Anisotropy =     4.3474

     11  H    Isotropic =    29.9384   Anisotropy =     9.8794

     12  C    Isotropic =   173.3031   Anisotropy =    11.5270

     13  H    Isotropic =    29.3092   Anisotropy =    10.1899

     14  H    Isotropic =    30.2645   Anisotropy =     5.7874

     15  H    Isotropic =    30.2269   Anisotropy =    13.2293

     16  C    Isotropic =   152.9352   Anisotropy =    33.0314

     17  H    Isotropic =    28.9246   Anisotropy =     7.3142

     18  H    Isotropic =    29.7225   Anisotropy =     9.7990

     19  C    Isotropic =   169.0628   Anisotropy =    23.0024

     20  H    Isotropic =    30.4299   Anisotropy =     5.3953

     21  H    Isotropic =    29.8239   Anisotropy =     6.7433

     22  H    Isotropic =    30.2803   Anisotropy =    13.8387

     23  C    Isotropic =   147.6676   Anisotropy =    35.4247

     24  H    Isotropic =    29.8428   Anisotropy =    10.3206

     25  H    Isotropic =    28.4893   Anisotropy =     5.1989

     26  C    Isotropic =   172.0608   Anisotropy =    18.5226

     27  H    Isotropic =    30.2078   Anisotropy =    13.9004

     28  H    Isotropic =    30.3643   Anisotropy =     6.4962

     29  H    Isotropic =    30.5036   Anisotropy =     7.8344

     30  C    Isotropic =   154.6157   Anisotropy =    24.1356

     31  H    Isotropic =    27.9512   Anisotropy =    13.2950

     32  H    Isotropic =    28.8364   Anisotropy =     7.8805

     33  C    Isotropic =   169.0614   Anisotropy =    24.7083

     34  H    Isotropic =    30.3165   Anisotropy =     7.8557

     35  H    Isotropic =    29.7894   Anisotropy =    13.2041

     36  H    Isotropic =    30.5053   Anisotropy =     7.4737

     37  C    Isotropic =   151.2513   Anisotropy =    34.7721

     38  H    Isotropic =    28.9218   Anisotropy =     7.9876

     39  H    Isotropic =    28.9338   Anisotropy =     8.0461

     40  C    Isotropic =   171.1482   Anisotropy =    23.9916

     41  H    Isotropic =    30.0882   Anisotropy =    13.2629

     42  H    Isotropic =    30.4275   Anisotropy =     8.0606

     43  H    Isotropic =    29.6792   Anisotropy =     5.1813

     44  C    Isotropic =   152.9418   Anisotropy =    31.8614

     45  H    Isotropic =    29.2838   Anisotropy =     8.7011

     46  H    Isotropic =    28.0846   Anisotropy =     7.8113

     47  C    Isotropic =   169.6517   Anisotropy =    25.6463

     48  H    Isotropic =    30.4258   Anisotropy =     8.3094

     49  H    Isotropic =    30.1565   Anisotropy =     7.8706

     50  H    Isotropic =    29.9642   Anisotropy =    13.0116

 The electronic state is 1-A.
 Alpha  occ. eigenvalues -- ********************-427.54235-414.87299-414.87221
 Alpha  occ. eigenvalues -- -414.86954-149.66401-141.94214-141.94206-141.94134
 Alpha  occ. eigenvalues -- -100.56418-100.56302-100.56282-100.53169 -99.92280
 Alpha  occ. eigenvalues --  -92.08179 -92.08013 -92.07623 -79.04044 -79.03917
 Alpha  occ. eigenvalues --  -79.03705 -79.03611 -79.03562 -76.30582 -76.30321
 Alpha  occ. eigenvalues --  -28.82816 -25.17459 -25.17438 -25.17208 -20.83724
 Alpha  occ. eigenvalues --  -17.72343 -17.72342 -17.72186 -17.72174 -17.72131
 Alpha  occ. eigenvalues --  -17.40645 -17.40334 -17.39505 -11.59009 -11.58564
 Alpha  occ. eigenvalues --  -11.58128 -11.57943 -11.57837  -9.91010  -9.90995
 Alpha  occ. eigenvalues --   -9.90991  -9.90943  -9.90908  -9.90481  -9.89139
 Alpha  occ. eigenvalues --   -9.89098  -9.89010  -9.88951  -9.88896  -9.88700
 Alpha  occ. eigenvalues --   -9.14298  -9.14189  -9.14159  -9.10999  -6.98094
 Alpha  occ. eigenvalues --   -6.97975  -6.97952  -6.97484  -6.97467  -6.97377
 Alpha  occ. eigenvalues --   -6.97362  -6.97349  -6.97326  -6.94761  -6.94237
 Alpha  occ. eigenvalues --   -6.94165  -6.33589  -6.33365  -4.56101  -4.56081
 Alpha  occ. eigenvalues --   -4.55907  -4.55879  -4.55875  -4.55651  -4.51581
 Alpha  occ. eigenvalues --   -3.25040  -3.24995  -3.24619  -3.13868  -3.13827
 Alpha  occ. eigenvalues --   -3.13348  -3.13022  -3.12888  -3.12741  -3.12704
 Alpha  occ. eigenvalues --   -2.86678  -1.81821  -1.81471  -1.78937  -1.04104
 Alpha  occ. eigenvalues --   -1.04097  -1.03711  -1.03679  -1.03621  -0.73729
 Alpha  occ. eigenvalues --   -0.73515  -0.73096  -0.71491  -0.71388  -0.69626
 Alpha  occ. eigenvalues --   -0.69416  -0.69345  -0.69158  -0.68306  -0.61613
 Alpha  occ. eigenvalues --   -0.61447  -0.56769  -0.56568  -0.56494  -0.55624
 Alpha  occ. eigenvalues --   -0.49799  -0.48718  -0.43363  -0.42938  -0.42436
 Alpha  occ. eigenvalues --   -0.42132  -0.41121  -0.40969  -0.40571  -0.40248
 Alpha  occ. eigenvalues --   -0.38026  -0.37555  -0.37488  -0.37170  -0.36793
 Alpha  occ. eigenvalues --   -0.35675  -0.35607  -0.35255  -0.34690  -0.34560
 Alpha  occ. eigenvalues --   -0.34083  -0.33746  -0.33436  -0.33229  -0.33043
 Alpha  occ. eigenvalues --   -0.32459  -0.32182  -0.31914  -0.31761  -0.31175
 Alpha  occ. eigenvalues --   -0.31092  -0.30021  -0.29411  -0.29360  -0.28562
 Alpha  occ. eigenvalues --   -0.28453  -0.28237  -0.27993  -0.27889  -0.27615
 Alpha  occ. eigenvalues --   -0.27041  -0.26657  -0.26526  -0.25910  -0.24366
 Alpha  occ. eigenvalues --   -0.24055  -0.22913  -0.22151  -0.21945
 Alpha virt. eigenvalues --   -0.11340  -0.06472  -0.04522  -0.03243  -0.02250
 Alpha virt. eigenvalues --   -0.01436  -0.01283  -0.00855  -0.00359  -0.00143
 Alpha virt. eigenvalues --    0.00005   0.00689   0.00943   0.01397   0.01890

 Mulliken charges:
               1
     1  Pt   0.379591
     2  Sn   0.300747
     3  P    0.145821
     4  P    0.076450
     5  Cl  -0.206914
     6  Cl  -0.239121
     7  Cl  -0.193819
     8  Cl  -0.475982
     9  C   -0.509667
    10  H    0.109690
    11  H    0.107156
    12  C   -0.071775
    13  H    0.076498
    14  H    0.080719
    15  H    0.130313
    16  C   -0.387658
    17  H    0.112767
    18  H    0.115954
    19  C   -0.110214
    20  H    0.086453
    21  H    0.088080
    22  H    0.133236
    23  C   -0.351579
    24  H    0.115596
    25  H    0.110538
    26  C   -0.162331
    27  H    0.143403
    28  H    0.082285
    29  H    0.110220
    30  C   -0.350505
    31  H    0.107498
    32  H    0.097723
    33  C   -0.206539
    34  H    0.117553
    35  H    0.133602
    36  H    0.111213
    37  C   -0.254509
    38  H    0.086950
    39  H    0.090818
    40  C   -0.158111
    41  H    0.126215
    42  H    0.110889
    43  H    0.109006
    44  C   -0.218812
    45  H    0.090671
    46  H    0.076879
    47  C   -0.231199
    48  H    0.111406
    49  H    0.115903
    50  H    0.136893
 Sum of Mulliken charges =   0.00000

 Dipole moment (field-independent basis, Debye):
    X=             -1.7267    Y=             -6.8785    Z=             -1.5737  Tot=              7.2644
 Quadrupole moment (field-independent basis, Debye-Ang):
   XX=           -175.3294   YY=           -250.4703   ZZ=           -212.5740
   XY=            -10.3798   XZ=             -0.7822   YZ=              3.3917

 Normal termination of Gaussian 09 at Wed Mar 13 00:51:45 2019.
