 Gaussian 09, Revision D.01,
 Gaussian 09:  EM64L-G09RevD.01 24-Apr-2013

 ----------------------------------------------------------------------
 #PBEPBE/gen scf=(maxcycle=500,conver=3) NMR=GIAO Scrf=(solvent=Dichlor
 omethane)
 ----------------------------------------------------------------------

 -------------
 estrutura 103
 -------------
 Symbolic Z-matrix:
 Charge =  0 Multiplicity = 1

                         Standard orientation:
 ---------------------------------------------------------------------
 Center     Atomic      Atomic             Coordinates (Angstroms)
 Number     Number       Type             X           Y           Z
 ---------------------------------------------------------------------
      1         78           0       -0.061031    0.354825   -0.071204
      2         15           0        2.323393    0.547647    0.020963
      3          6           0        3.478101   -0.894141   -0.182387
      4          6           0        4.028080   -1.579832    0.913715
      5          6           0        3.838342   -1.297117   -1.480877
      6          6           0        4.922299   -2.635252    0.715218
      7          1           0        3.772912   -1.291614    1.932464
      8          6           0        4.731669   -2.350947   -1.677027
      9          1           0        3.434633   -0.775140   -2.351296
     10          6           0        5.278676   -3.022940   -0.578313
     11          1           0        5.343360   -3.152156    1.581806
     12          1           0        5.004299   -2.643634   -2.693952
     13          1           0        5.983859   -3.841988   -0.730892
     14          6           0        2.729261    1.197481    1.699833
     15          6           0        3.517263    2.337529    1.915621
     16          6           0        2.187860    0.519867    2.808270
     17          6           0        3.775565    2.779663    3.217903
     18          1           0        3.923181    2.898550    1.072813
     19          6           0        2.455338    0.960207    4.107195
     20          1           0        1.554856   -0.357846    2.655941
     21          6           0        3.251579    2.090870    4.315660
     22          1           0        4.388035    3.671661    3.370117
     23          1           0        2.033823    0.420521    4.959236
     24          1           0        3.455452    2.438853    5.331491
     25          6           0        3.024922    1.704767   -1.234135
     26          6           0        4.414992    1.918119   -1.303762
     27          6           0        2.194108    2.319110   -2.183143
     28          6           0        4.955790    2.744649   -2.290608
     29          1           0        5.085529    1.423845   -0.595919
     30          6           0        2.740475    3.136415   -3.178935
     31          1           0        1.117666    2.162484   -2.137940
     32          6           0        4.118126    3.354319   -3.232591
     33          1           0        6.035351    2.904717   -2.329625
     34          1           0        2.081900    3.603834   -3.916495
     35          1           0        4.541284    3.994533   -4.010771
     36         50           0       -0.060345   -2.242467   -0.473076
     37          6           0        1.062329   -3.090045   -2.147853
     38          1           0        1.871875   -3.729947   -1.766324
     39          1           0        0.357264   -3.694847   -2.742106
     40          1           0        1.490634   -2.298344   -2.778892
     41          6           0       -1.856636   -3.487557   -0.449780
     42          1           0       -2.312515   -3.506922    0.547863
     43          1           0       -2.590390   -3.131538   -1.187326
     44          1           0       -1.530810   -4.501548   -0.724015
     45         17           0       -0.051432    2.808834    0.385383
     46         15           0       -2.430608    0.291265   -0.009753
     47          6           0       -3.292165    1.913365    0.207200
     48          6           0       -3.419527    2.764609   -0.905450
     49          6           0       -3.796096    2.331644    1.448895
     50          6           0       -4.047151    4.004301   -0.778505
     51          1           0       -3.029814    2.459828   -1.879896
     52          6           0       -4.423866    3.575706    1.572336
     53          1           0       -3.706323    1.690744    2.327757
     54          6           0       -4.552447    4.414238    0.461809
     55          1           0       -4.141285    4.653535   -1.653279
     56          1           0       -4.815450    3.886841    2.545324
     57          1           0       -5.044846    5.384901    0.560600
     58          6           0       -3.165295   -0.293245   -1.602150
     59          6           0       -4.508285   -0.686312   -1.763844
     60          6           0       -2.343584   -0.221819   -2.743544
     61          6           0       -4.991698   -1.062279   -3.019878
     62          1           0       -5.197903   -0.686919   -0.921294
     63          6           0       -2.841872   -0.558258   -4.006210
     64          1           0       -1.308469    0.118390   -2.641324
     65          6           0       -4.162241   -1.000301   -4.144932
     66          1           0       -6.026337   -1.399044   -3.121315
     67          1           0       -2.192192   -0.477265   -4.881695
     68          1           0       -4.548654   -1.282354   -5.127486
     69          6           0       -2.986891   -0.701175    1.448886
     70          6           0       -4.105658   -1.550175    1.491215
     71          6           0       -2.220173   -0.539290    2.620385
     72          6           0       -4.446401   -2.213544    2.673833
     73          1           0       -4.713845   -1.726459    0.604836
     74          6           0       -2.571518   -1.192018    3.803593
     75          1           0       -1.335955    0.100194    2.610143
     76          6           0       -3.684168   -2.034320    3.834148
     77          1           0       -5.311951   -2.878969    2.682185
     78          1           0       -1.961693   -1.048582    4.700741
     79          1           0       -3.954735   -2.551673    4.757388
     80         17           0        0.986639   -3.215366    1.548733
 ---------------------------------------------------------------------

 SCF Done:  E(RPBE-PBE) =  -26162.2140439     A.U. after    8 cycles

      1  Pt   Isotropic =  3239.3775   Anisotropy =  1610.1368

      2  P    Isotropic =   307.5629   Anisotropy =    96.7178

      3  C    Isotropic =   225.0810   Anisotropy =   258.1971

      4  C    Isotropic =   228.0719   Anisotropy =   506.7682

      5  C    Isotropic =   216.5048   Anisotropy =   459.5370

      6  C    Isotropic =    -9.3258   Anisotropy =   106.1311

      7  H    Isotropic =    23.8756   Anisotropy =    11.2686

      8  C    Isotropic =     7.7497   Anisotropy =   173.4144

      9  H    Isotropic =    23.4125   Anisotropy =    22.9693

     10  C    Isotropic =  -153.9729   Anisotropy =   284.8775

     11  H    Isotropic =    22.7635   Anisotropy =    10.3837

     12  H    Isotropic =    22.5035   Anisotropy =    10.9127

     13  H    Isotropic =    23.4152   Anisotropy =     6.4185

     14  C    Isotropic =   161.7957   Anisotropy =   208.8075

     15  C    Isotropic =   153.6283   Anisotropy =   345.1506

     16  C    Isotropic =   138.0485   Anisotropy =   328.5531

     17  C    Isotropic =   -42.1371   Anisotropy =   128.5159

     18  H    Isotropic =    24.0508   Anisotropy =    11.4126

     19  C    Isotropic =    47.3410   Anisotropy =   117.9781

     20  H    Isotropic =    20.6836   Anisotropy =    14.8299

     21  C    Isotropic =   -82.9210   Anisotropy =   149.0327

     22  H    Isotropic =    21.6182   Anisotropy =     9.7580

     23  H    Isotropic =    21.3533   Anisotropy =    10.3386

     24  H    Isotropic =    20.6921   Anisotropy =     8.7008

     25  C    Isotropic =   124.2605   Anisotropy =    87.5496

     26  C    Isotropic =   160.1573   Anisotropy =   364.2246

     27  C    Isotropic =   109.4012   Anisotropy =   353.7747

     28  C    Isotropic =   -46.5639   Anisotropy =   122.7979

     29  H    Isotropic =    21.4157   Anisotropy =    14.2718

     30  C    Isotropic =   -16.8292   Anisotropy =    58.0062

     31  H    Isotropic =    20.4572   Anisotropy =    14.1009

     32  C    Isotropic =   -39.9338   Anisotropy =    71.8111

     33  H    Isotropic =    14.7270   Anisotropy =    17.5194

     34  H    Isotropic =    17.1897   Anisotropy =    14.5571

     35  H    Isotropic =    11.2277   Anisotropy =    20.4537

     36  Sn   Isotropic =  1907.9916   Anisotropy =   385.0631

     37  C    Isotropic =   174.1363   Anisotropy =    22.9979

     38  H    Isotropic =    31.6396   Anisotropy =     8.8586

     39  H    Isotropic =    31.5569   Anisotropy =    13.4891

     40  H    Isotropic =    30.7516   Anisotropy =     9.5440

     41  C    Isotropic =   177.1782   Anisotropy =    20.3350

     42  H    Isotropic =    33.5134   Anisotropy =     8.5352

     43  H    Isotropic =    33.6127   Anisotropy =     8.6640

     44  H    Isotropic =    32.3005   Anisotropy =    14.2011

     45  Cl   Isotropic =   856.7639   Anisotropy =   173.4968

     46  P    Isotropic =   269.0905   Anisotropy =    69.2232

     47  C    Isotropic =    27.6420   Anisotropy =   188.4646

     48  C    Isotropic =    37.4414   Anisotropy =   206.7787

     49  C    Isotropic =    41.1760   Anisotropy =   205.9898

     50  C    Isotropic =    25.2017   Anisotropy =   190.8728

     51  H    Isotropic =    25.1112   Anisotropy =    15.5372

     52  C    Isotropic =    22.9376   Anisotropy =   180.2735

     53  H    Isotropic =    25.0337   Anisotropy =    16.9639

     54  C    Isotropic =    64.1789   Anisotropy =   351.3449

     55  H    Isotropic =    20.4746   Anisotropy =    13.5939

     56  H    Isotropic =    19.8409   Anisotropy =    13.9397

     57  H    Isotropic =    17.8577   Anisotropy =    12.9620

     58  C    Isotropic =    47.1042   Anisotropy =   148.4156

     59  C    Isotropic =    56.3682   Anisotropy =   206.4906

     60  C    Isotropic =    41.8469   Anisotropy =   180.5926

     61  C    Isotropic =    17.3669   Anisotropy =   157.7023

     62  H    Isotropic =    22.4463   Anisotropy =    13.1631

     63  C    Isotropic =     4.8824   Anisotropy =   118.4846

     64  H    Isotropic =    22.9974   Anisotropy =    15.4764

     65  C    Isotropic =    52.9283   Anisotropy =   342.5344

     66  H    Isotropic =    15.7333   Anisotropy =    15.7459

     67  H    Isotropic =    19.9026   Anisotropy =    13.0290

     68  H    Isotropic =    14.8577   Anisotropy =    17.4989

     69  C    Isotropic =    34.3183   Anisotropy =   162.5853

     70  C    Isotropic =    51.8886   Anisotropy =   214.5157

     71  C    Isotropic =    22.1363   Anisotropy =   169.9201

     72  C    Isotropic =     2.6904   Anisotropy =   148.5945

     73  H    Isotropic =    22.2381   Anisotropy =    11.2074

     74  C    Isotropic =     7.9378   Anisotropy =   163.0006

     75  H    Isotropic =    23.9852   Anisotropy =    11.7116

     76  C    Isotropic =    54.9962   Anisotropy =   403.9143

     77  H    Isotropic =    15.1323   Anisotropy =    16.2751

     78  H    Isotropic =    19.6000   Anisotropy =    12.8657

     79  H    Isotropic =    13.8359   Anisotropy =    19.6452

     80  Cl   Isotropic =   928.8409   Anisotropy =   126.0429

 The electronic state is 1-A.
 Alpha  occ. eigenvalues -- ********************-427.53671-414.86726-414.86655
 Alpha  occ. eigenvalues -- -414.86429-149.60395-141.88221-141.88104-141.88093
 Alpha  occ. eigenvalues -- -100.54201-100.51210 -99.91713 -92.07548 -92.07461
 Alpha  occ. eigenvalues --  -92.07111 -79.03430 -79.03323 -79.03140 -79.03080
 Alpha  occ. eigenvalues --  -79.03035 -76.31758 -76.31095 -28.77062 -25.11847
 Alpha  occ. eigenvalues --  -25.11500 -25.11465 -20.83158 -17.66606 -17.66540
 Alpha  occ. eigenvalues --  -17.66516 -17.66286 -17.66278 -17.39964 -17.39792
 Alpha  occ. eigenvalues --  -17.39033 -11.58339 -11.57956 -11.57571 -11.57441
 Alpha  occ. eigenvalues --  -11.57347  -9.93459  -9.93380  -9.93302  -9.93218
 Alpha  occ. eigenvalues --   -9.92948  -9.92303  -9.91765  -9.91715  -9.91681
 Alpha  occ. eigenvalues --   -9.91449  -9.91387  -9.91227  -9.91212  -9.91206
 Alpha  occ. eigenvalues --   -9.90786  -9.90781  -9.90755  -9.90609  -9.90538
 Alpha  occ. eigenvalues --   -9.90526  -9.90525  -9.90456  -9.90430  -9.90408
 Alpha  occ. eigenvalues --   -9.90331  -9.90228  -9.90165  -9.90128  -9.90111
 Alpha  occ. eigenvalues --   -9.90027  -9.90017  -9.89979  -9.89904  -9.89898
 Alpha  occ. eigenvalues --   -9.89879  -9.89838  -9.87320  -9.87166  -9.11999
 Alpha  occ. eigenvalues --   -9.09017  -6.95748  -6.95227  -6.95196  -6.92718
 Alpha  occ. eigenvalues --   -6.92287  -6.92219  -6.34835  -6.34265  -4.57379
 Alpha  occ. eigenvalues --   -4.57357  -4.57063  -4.56814  -4.56775  -4.56477
 Alpha  occ. eigenvalues --   -4.46187  -3.19976  -3.19304  -3.19268  -3.13204
 Alpha  occ. eigenvalues --   -3.13182  -3.12755  -3.12479  -3.12364  -3.12248
 Alpha  occ. eigenvalues --   -3.12217  -2.86111  -1.81339  -1.80652  -1.78517
 Alpha  occ. eigenvalues --   -0.99078  -0.98695  -0.98670  -0.98359  -0.98192
 Alpha  occ. eigenvalues --   -0.80128  -0.79987  -0.79240  -0.79114  -0.79086
 Alpha  occ. eigenvalues --   -0.78659  -0.71947  -0.71766  -0.69644  -0.69290
 Alpha  occ. eigenvalues --   -0.69180  -0.69144  -0.68837  -0.68816  -0.68753
 Alpha  occ. eigenvalues --   -0.68513  -0.68418  -0.68327  -0.68189  -0.66387
 Alpha  occ. eigenvalues --   -0.61490  -0.61102  -0.60826  -0.60130  -0.56345
 Alpha  occ. eigenvalues --   -0.56285  -0.56092  -0.55762  -0.55439  -0.55265
 Alpha  occ. eigenvalues --   -0.54950  -0.54927  -0.54775  -0.54736  -0.52178
 Alpha  occ. eigenvalues --   -0.51910  -0.47844  -0.47702  -0.47633  -0.47613
 Alpha  occ. eigenvalues --   -0.46029  -0.45654  -0.42469  -0.42248  -0.42082
 Alpha  occ. eigenvalues --   -0.41994  -0.41605  -0.41506  -0.41350  -0.41059
 Alpha  occ. eigenvalues --   -0.40836  -0.40742  -0.40466  -0.40269  -0.39390
 Alpha  occ. eigenvalues --   -0.39000  -0.38591  -0.38510  -0.38473  -0.38275
 Alpha  occ. eigenvalues --   -0.38172  -0.38046  -0.37880  -0.37391  -0.37233
 Alpha  occ. eigenvalues --   -0.36776  -0.36046  -0.35747  -0.35491  -0.34963
 Alpha  occ. eigenvalues --   -0.34529  -0.34290  -0.34043  -0.33880  -0.33705
 Alpha  occ. eigenvalues --   -0.33579  -0.33179  -0.32508  -0.31788  -0.31586
 Alpha  occ. eigenvalues --   -0.31400  -0.31337  -0.31202  -0.30981  -0.30899
 Alpha  occ. eigenvalues --   -0.30747  -0.30258  -0.30086  -0.29707  -0.28700
 Alpha  occ. eigenvalues --   -0.28389  -0.28038  -0.26816  -0.26436  -0.26336
 Alpha  occ. eigenvalues --   -0.26055  -0.25292  -0.24902  -0.24824  -0.24673
 Alpha  occ. eigenvalues --   -0.24574  -0.24300  -0.24137  -0.23911  -0.23786
 Alpha  occ. eigenvalues --   -0.23708  -0.23675  -0.23083  -0.22346  -0.22044
 Alpha  occ. eigenvalues --   -0.21431  -0.21188  -0.20376
 Alpha virt. eigenvalues --   -0.09601  -0.07690  -0.07487  -0.06639  -0.06437
 Alpha virt. eigenvalues --   -0.06270  -0.06236  -0.05986  -0.05721  -0.05683
 Alpha virt. eigenvalues --   -0.05198  -0.04809  -0.04788  -0.03922  -0.02332

 Mulliken charges:
               1
     1  Pt   0.069523
     2  P    1.021908
     3  C   -0.964032
     4  C    0.190220
     5  C    0.581250
     6  C   -0.139621
     7  H    0.089282
     8  C   -0.046398
     9  H    0.090161
    10  C   -0.539713
    11  H    0.145613
    12  H    0.129528
    13  H    0.152812
    14  C   -0.850446
    15  C    0.218356
    16  C    0.642821
    17  C   -0.293677
    18  H    0.103427
    19  C   -0.021347
    20  H    0.068992
    21  C   -0.565858
    22  H    0.146354
    23  H    0.146829
    24  H    0.157477
    25  C   -0.877985
    26  C    0.387917
    27  C    0.321465
    28  C    0.087608
    29  H    0.098781
    30  C   -0.307943
    31  H    0.095121
    32  C   -0.609947
    33  H    0.144522
    34  H    0.143018
    35  H    0.153804
    36  Sn   0.403929
    37  C   -0.377482
    38  H    0.100723
    39  H    0.126522
    40  H    0.094072
    41  C   -0.331607
    42  H    0.093284
    43  H    0.090406
    44  H    0.115569
    45  Cl  -0.512474
    46  P    1.076346
    47  C   -0.827148
    48  C    0.376180
    49  C    0.268268
    50  C   -0.043128
    51  H    0.089852
    52  C   -0.166708
    53  H    0.106845
    54  C   -0.536280
    55  H    0.147154
    56  H    0.143165
    57  H    0.150016
    58  C   -0.824361
    59  C    0.304969
    60  C    0.380335
    61  C   -0.109327
    62  H    0.093523
    63  C   -0.041354
    64  H    0.074244
    65  C   -0.566993
    66  H    0.144023
    67  H    0.140886
    68  H    0.151051
    69  C   -0.659431
    70  C    0.149074
    71  C    0.417440
    72  C   -0.140175
    73  H    0.056444
    74  C    0.043388
    75  H    0.058699
    76  C   -0.530307
    77  H    0.136689
    78  H    0.137404
    79  H    0.147047
    80  Cl  -0.320591
 Sum of Mulliken charges =   0.00000

 Dipole moment (field-independent basis, Debye):
    X=             -2.5304    Y=             -1.0155    Z=             -4.1829  Tot=              4.9931
 Quadrupole moment (field-independent basis, Debye-Ang):
   XX=           -271.3161   YY=           -339.7719   ZZ=           -281.5876
   XY=             11.3148   XZ=             -2.4863   YZ=              0.2139

 Normal termination of Gaussian 09 at Mon Nov 25 18:47:08 2019.
