 Gaussian 09, Revision D.01,
 Gaussian 09:  EM64L-G09RevD.01 24-Apr-2013

 ----------------------------------------------------------------------
 #PBEPBE/gen scf=(maxcycle=1000,conver=4) NMR=GIAO Scrf=(solvent=Dichlo
 romethane)
 ----------------------------------------------------------------------

 -----------
 estrutura 4
 -----------
 Symbolic Z-matrix:
 Charge =  0 Multiplicity = 1

                         Standard orientation:
 ---------------------------------------------------------------------
 Center     Atomic      Atomic             Coordinates (Angstroms)
 Number     Number       Type             X           Y           Z
 ---------------------------------------------------------------------
      1         78           0        0.124401    0.324503   -0.147109
      2          1           0        0.405972    1.757592   -0.718867
      3         50           0       -0.397229   -2.131380    0.978440
      4         15           0       -2.127415    0.835239   -0.596118
      5         15           0        2.472736    0.157302    0.087241
      6         17           0       -2.039284   -2.209436    2.798226
      7         17           0       -1.200402   -4.045057   -0.310650
      8         17           0        1.415977   -3.322378    2.154780
      9          6           0       -3.103865    1.371417    0.861585
     10          6           0       -4.492452    1.576388    0.772465
     11          6           0       -2.447211    1.640091    2.074608
     12          6           0       -5.207777    2.042208    1.877715
     13          1           0       -5.023742    1.368202   -0.158697
     14          6           0       -3.164306    2.112196    3.178581
     15          1           0       -1.369864    1.482131    2.152653
     16          6           0       -4.544822    2.314519    3.080892
     17          1           0       -6.288138    2.193737    1.797865
     18          1           0       -2.642571    2.320235    4.114389
     19          1           0       -5.107896    2.682819    3.941999
     20          6           0       -3.044726   -0.561396   -1.370144
     21          6           0       -2.749421   -0.899296   -2.704017
     22          6           0       -3.966242   -1.344768   -0.654796
     23          6           0       -3.386533   -1.979514   -3.317434
     24          1           0       -2.010111   -0.329369   -3.272774
     25          6           0       -4.599829   -2.426450   -1.274731
     26          1           0       -4.181106   -1.129206    0.393603
     27          6           0       -4.319021   -2.741968   -2.605705
     28          1           0       -3.147755   -2.227684   -4.353210
     29          1           0       -5.311744   -3.029600   -0.706572
     30          1           0       -4.813385   -3.589531   -3.086841
     31          6           0       -2.392241    2.210393   -1.851683
     32          1           0       -3.475278    2.230054   -2.048161
     33          1           0       -1.898044    1.868580   -2.772714
     34          6           0       -1.888934    3.577866   -1.462361
     35          6           0       -0.635284    4.035850   -1.903997
     36          6           0       -2.672262    4.436471   -0.669840
     37          6           0       -0.172271    5.309505   -1.555455
     38          1           0       -0.019637    3.394458   -2.539506
     39          6           0       -2.210540    5.708630   -0.319227
     40          1           0       -3.657489    4.109463   -0.329552
     41          6           0       -0.957162    6.148539   -0.758086
     42          1           0        0.804138    5.647253   -1.912692
     43          1           0       -2.837455    6.360791    0.294823
     44          1           0       -0.597613    7.144734   -0.486897
     45          6           0        3.429501    1.521524   -0.713059
     46          6           0        3.141297    2.841019   -0.316983
     47          6           0        4.436844    1.303553   -1.665680
     48          6           0        3.849531    3.915697   -0.855317
     49          1           0        2.357487    3.031803    0.418631
     50          6           0        5.138247    2.384602   -2.213794
     51          1           0        4.692800    0.296048   -1.997990
     52          6           0        4.849748    3.690153   -1.808975
     53          1           0        3.616198    4.933356   -0.530757
     54          1           0        5.916102    2.197071   -2.959518
     55          1           0        5.402488    4.531214   -2.234287
     56          6           0        3.051974    0.244321    1.834856
     57          6           0        4.357491   -0.142872    2.190224
     58          6           0        2.187130    0.723467    2.832006
     59          6           0        4.781090   -0.060913    3.519062
     60          1           0        5.056369   -0.513101    1.437704
     61          6           0        2.618175    0.814688    4.160074
     62          1           0        1.169086    1.023180    2.571532
     63          6           0        3.912550    0.417201    4.506354
     64          1           0        5.793103   -0.375984    3.785408
     65          1           0        1.932295    1.187087    4.925147
     66          1           0        4.246788    0.480253    5.545134
     67          6           0        3.184828   -1.437285   -0.548227
     68          1           0        4.271527   -1.305427   -0.678443
     69          1           0        3.054916   -2.139100    0.288865
     70          6           0        2.560604   -2.025850   -1.800019
     71          6           0        2.334741   -3.412103   -1.855431
     72          6           0        2.225363   -1.252322   -2.925861
     73          6           0        1.804678   -4.010375   -3.002000
     74          1           0        2.564631   -4.028745   -0.982800
     75          6           0        1.696935   -1.849340   -4.074610
     76          1           0        2.372937   -0.171175   -2.915193
     77          6           0        1.487107   -3.231034   -4.118529
     78          1           0        1.630823   -5.089635   -3.017139
     79          1           0        1.446903   -1.227786   -4.938740
     80          1           0        1.071099   -3.696143   -5.015555
 ---------------------------------------------------------------------

 SCF Done:  E(RPBE-PBE) =  -26621.4580941     A.U. after    9 cycles

      1  Pt   Isotropic =  3526.0419   Anisotropy =   481.5003

      2  H    Isotropic =    32.6393   Anisotropy =    31.8598

      3  Sn   Isotropic =  2154.5881   Anisotropy =   800.4614

      4  P    Isotropic =   241.3253   Anisotropy =   109.8714

      5  P    Isotropic =   266.6964   Anisotropy =   101.1419

      6  Cl   Isotropic =   767.4347   Anisotropy =   306.1386

      7  Cl   Isotropic =   763.6789   Anisotropy =   331.3956

      8  Cl   Isotropic =   752.7288   Anisotropy =   315.6042

      9  C    Isotropic =    48.8116   Anisotropy =   172.5531

     10  C    Isotropic =    47.8172   Anisotropy =   192.1717

     11  C    Isotropic =    35.1412   Anisotropy =   173.1442

     12  C    Isotropic =    49.7013   Anisotropy =   188.0004

     13  H    Isotropic =    23.3022   Anisotropy =    12.3050

     14  C    Isotropic =    46.9347   Anisotropy =   182.6583

     15  H    Isotropic =    23.2332   Anisotropy =    15.0886

     16  C    Isotropic =    45.2110   Anisotropy =   199.7210

     17  H    Isotropic =    23.1629   Anisotropy =     5.9119

     18  H    Isotropic =    23.3366   Anisotropy =     8.3484

     19  H    Isotropic =    23.0849   Anisotropy =     4.0352

     20  C    Isotropic =    38.2633   Anisotropy =   172.7892

     21  C    Isotropic =    42.2694   Anisotropy =   172.7235

     22  C    Isotropic =    49.3777   Anisotropy =   176.5908

     23  C    Isotropic =    47.3444   Anisotropy =   183.5369

     24  H    Isotropic =    23.8758   Anisotropy =    10.6788

     25  C    Isotropic =    58.6393   Anisotropy =   195.8558

     26  H    Isotropic =    24.2758   Anisotropy =     9.2234

     27  C    Isotropic =    56.1515   Anisotropy =   189.9027

     28  H    Isotropic =    23.8922   Anisotropy =     6.2413

     29  H    Isotropic =    24.8213   Anisotropy =     4.9970

     30  H    Isotropic =    24.4304   Anisotropy =     1.9677

     31  C    Isotropic =   136.7689   Anisotropy =    19.0098

     32  H    Isotropic =    27.6323   Anisotropy =     6.9056

     33  H    Isotropic =    28.0871   Anisotropy =     6.2228

     34  C    Isotropic =    37.8685   Anisotropy =   179.1673

     35  C    Isotropic =    42.0442   Anisotropy =   164.5557

     36  C    Isotropic =    48.0390   Anisotropy =   168.6511

     37  C    Isotropic =    46.5364   Anisotropy =   172.7656

     38  H    Isotropic =    24.1357   Anisotropy =     8.3023

     39  C    Isotropic =    51.5384   Anisotropy =   178.8770

     40  H    Isotropic =    24.9571   Anisotropy =    11.0039

     41  C    Isotropic =    53.3312   Anisotropy =   180.1622

     42  H    Isotropic =    24.0218   Anisotropy =     5.6249

     43  H    Isotropic =    24.5585   Anisotropy =     6.3866

     44  H    Isotropic =    24.1874   Anisotropy =     3.8703

     45  C    Isotropic =    30.2715   Anisotropy =   180.9413

     46  C    Isotropic =    45.7451   Anisotropy =   182.4581

     47  C    Isotropic =    54.5344   Anisotropy =   179.5753

     48  C    Isotropic =    63.3729   Anisotropy =   197.4407

     49  H    Isotropic =    23.1471   Anisotropy =    13.8799

     50  C    Isotropic =    67.9694   Anisotropy =   196.6955

     51  H    Isotropic =    23.3496   Anisotropy =    12.3752

     52  C    Isotropic =    68.5846   Anisotropy =   185.4980

     53  H    Isotropic =    24.9777   Anisotropy =     5.2538

     54  H    Isotropic =    25.9781   Anisotropy =     3.7503

     55  H    Isotropic =    26.4697   Anisotropy =     3.2978

     56  C    Isotropic =    32.5195   Anisotropy =   173.8881

     57  C    Isotropic =    48.2576   Anisotropy =   183.1231

     58  C    Isotropic =    40.3517   Anisotropy =   166.7535

     59  C    Isotropic =    48.5241   Anisotropy =   187.1135

     60  H    Isotropic =    23.8137   Anisotropy =    11.8642

     61  C    Isotropic =    45.1824   Anisotropy =   174.0713

     62  H    Isotropic =    23.2798   Anisotropy =    14.4948

     63  C    Isotropic =    45.6698   Anisotropy =   195.7893

     64  H    Isotropic =    23.2385   Anisotropy =     6.4349

     65  H    Isotropic =    23.2816   Anisotropy =     8.6428

     66  H    Isotropic =    22.9742   Anisotropy =     5.0322

     67  C    Isotropic =   145.2139   Anisotropy =    24.8821

     68  H    Isotropic =    26.6909   Anisotropy =     8.4492

     69  H    Isotropic =    26.9040   Anisotropy =     5.8468

     70  C    Isotropic =    42.0454   Anisotropy =   182.6011

     71  C    Isotropic =    45.2472   Anisotropy =   163.1026

     72  C    Isotropic =    50.5411   Anisotropy =   173.1653

     73  C    Isotropic =    48.4386   Anisotropy =   180.3627

     74  H    Isotropic =    23.7368   Anisotropy =     8.3744

     75  C    Isotropic =    43.6373   Anisotropy =   167.9789

     76  H    Isotropic =    23.5994   Anisotropy =     8.9730

     77  C    Isotropic =    49.5783   Anisotropy =   182.8148

     78  H    Isotropic =    23.5096   Anisotropy =     5.3708

     79  H    Isotropic =    23.3132   Anisotropy =     7.4594

     80  H    Isotropic =    23.1957   Anisotropy =     3.7620

 The electronic state is 1-A.
 Alpha  occ. eigenvalues -- ********************-427.54208-414.87234-414.87226
 Alpha  occ. eigenvalues -- -414.86946-149.64670-141.92485-141.92481-141.92411
 Alpha  occ. eigenvalues -- -100.54933-100.54889-100.54818 -99.92251 -92.08107
 Alpha  occ. eigenvalues --  -92.07996 -92.07627 -79.03990 -79.03872 -79.03668
 Alpha  occ. eigenvalues --  -79.03612 -79.03561 -76.31599 -76.31517 -28.81015
 Alpha  occ. eigenvalues --  -25.15651 -25.15641 -25.15418 -20.83727 -17.70547
 Alpha  occ. eigenvalues --  -17.70547 -17.70397 -17.70391 -17.70347 -17.40565
 Alpha  occ. eigenvalues --  -17.40364 -17.39572 -11.58954 -11.58539 -11.58112
 Alpha  occ. eigenvalues --  -11.58009 -11.57901  -9.92559  -9.92478  -9.92462
 Alpha  occ. eigenvalues --   -9.92396  -9.91988  -9.91947  -9.91910  -9.91731
 Alpha  occ. eigenvalues --   -9.91406  -9.91261  -9.91257  -9.91210  -9.91096
 Alpha  occ. eigenvalues --   -9.91089  -9.91005  -9.90953  -9.90899  -9.90883
 Alpha  occ. eigenvalues --   -9.90881  -9.90846  -9.90798  -9.90744  -9.90703
 Alpha  occ. eigenvalues --   -9.90665  -9.90608  -9.90532  -9.90507  -9.90469
 Alpha  occ. eigenvalues --   -9.90106  -9.90094  -9.90082  -9.90045  -9.90024
 Alpha  occ. eigenvalues --   -9.90005  -9.89970  -9.89907  -9.89866  -9.89809
 Alpha  occ. eigenvalues --   -9.12776  -9.12737  -9.12662  -6.96535  -6.96486
 Alpha  occ. eigenvalues --   -6.96436  -6.95989  -6.95966  -6.95954  -6.95933
 Alpha  occ. eigenvalues --   -6.95858  -6.95853  -6.34589  -6.34523  -4.57139
 Alpha  occ. eigenvalues --   -4.57111  -4.57062  -4.57054  -4.56834  -4.56764
 Alpha  occ. eigenvalues --   -4.49679  -3.23118  -3.23097  -3.22706  -3.13824
 Alpha  occ. eigenvalues --   -3.13792  -3.13332  -3.13037  -3.12902  -3.12829
 Alpha  occ. eigenvalues --   -3.12780  -2.86783  -1.81816  -1.81780  -1.79053
 Alpha  occ. eigenvalues --   -1.02143  -1.02136  -1.01766  -1.01752  -1.01649
 Alpha  occ. eigenvalues --   -0.79909  -0.79850  -0.79176  -0.79138  -0.78936
 Alpha  occ. eigenvalues --   -0.78908  -0.72918  -0.72835  -0.71461  -0.70243
 Alpha  occ. eigenvalues --   -0.70217  -0.69906  -0.69836  -0.69129  -0.69050
 Alpha  occ. eigenvalues --   -0.68983  -0.68898  -0.68779  -0.68598  -0.68144
 Alpha  occ. eigenvalues --   -0.68078  -0.64540  -0.64413  -0.59278  -0.59039
 Alpha  occ. eigenvalues --   -0.56180  -0.56115  -0.55825  -0.55725  -0.55305
 Alpha  occ. eigenvalues --   -0.55266  -0.55037  -0.55033  -0.53667  -0.53578
 Alpha  occ. eigenvalues --   -0.51780  -0.51423  -0.48092  -0.47968  -0.46787
 Alpha  occ. eigenvalues --   -0.46692  -0.46574  -0.46168  -0.42999  -0.42744
 Alpha  occ. eigenvalues --   -0.42124  -0.42078  -0.41953  -0.41789  -0.41495
 Alpha  occ. eigenvalues --   -0.41436  -0.41244  -0.41051  -0.41029  -0.40854
 Alpha  occ. eigenvalues --   -0.40629  -0.40024  -0.39130  -0.38849  -0.38728
 Alpha  occ. eigenvalues --   -0.38567  -0.38513  -0.38362  -0.38084  -0.37713
 Alpha  occ. eigenvalues --   -0.37532  -0.37384  -0.36829  -0.36642  -0.35613
 Alpha  occ. eigenvalues --   -0.35554  -0.34991  -0.34727  -0.34470  -0.34211
 Alpha  occ. eigenvalues --   -0.33904  -0.33434  -0.32931  -0.32030  -0.31966
 Alpha  occ. eigenvalues --   -0.31617  -0.31563  -0.31464  -0.31353  -0.31252
 Alpha  occ. eigenvalues --   -0.31224  -0.30915  -0.30851  -0.30438  -0.30282
 Alpha  occ. eigenvalues --   -0.30185  -0.29986  -0.28689  -0.28322  -0.27072
 Alpha  occ. eigenvalues --   -0.27034  -0.26721  -0.26654  -0.26460  -0.25695
 Alpha  occ. eigenvalues --   -0.25554  -0.25301  -0.25091  -0.24785  -0.24592
 Alpha  occ. eigenvalues --   -0.24472  -0.24322  -0.24083  -0.23935  -0.23660
 Alpha  occ. eigenvalues --   -0.23524  -0.23229  -0.23003  -0.22513  -0.21735
 Alpha  occ. eigenvalues --   -0.20966
 Alpha virt. eigenvalues --   -0.08738  -0.07651  -0.07289  -0.06990  -0.06499
 Alpha virt. eigenvalues --   -0.06214  -0.05902  -0.05519  -0.05449  -0.05298
 Alpha virt. eigenvalues --   -0.05104  -0.04969  -0.04712  -0.04495  -0.03323

 Mulliken charges:
               1
     1  Pt   0.734630
     2  H   -0.010525
     3  Sn   0.222775
     4  P    0.686796
     5  P    0.772030
     6  Cl  -0.273419
     7  Cl  -0.243871
     8  Cl  -0.271600
     9  C   -0.574655
    10  C    0.220980
    11  C    0.282066
    12  C    0.023055
    13  H    0.098947
    14  C   -0.159001
    15  H    0.076324
    16  C   -0.561037
    17  H    0.144118
    18  H    0.140633
    19  H    0.156294
    20  C   -0.991456
    21  C    0.397411
    22  C    0.296299
    23  C   -0.059704
    24  H    0.089499
    25  C   -0.125141
    26  H    0.108135
    27  C   -0.554325
    28  H    0.143943
    29  H    0.138434
    30  H    0.149887
    31  C   -0.150090
    32  H    0.105802
    33  H    0.071966
    34  C   -0.350006
    35  C    0.047128
    36  C   -0.081670
    37  C   -0.095043
    38  H    0.094468
    39  C   -0.132141
    40  H    0.107188
    41  C   -0.346268
    42  H    0.143854
    43  H    0.148215
    44  H    0.159797
    45  C   -0.922552
    46  C    0.294752
    47  C    0.420471
    48  C   -0.093094
    49  H    0.093578
    50  C   -0.149269
    51  H    0.108136
    52  C   -0.606695
    53  H    0.143788
    54  H    0.145822
    55  H    0.155155
    56  C   -0.775233
    57  C    0.159335
    58  C    0.500646
    59  C   -0.072143
    60  H    0.120680
    61  C   -0.201798
    62  H    0.091036
    63  C   -0.620195
    64  H    0.149274
    65  H    0.143949
    66  H    0.152619
    67  C    0.007266
    68  H    0.100862
    69  H    0.047802
    70  C   -0.311981
    71  C   -0.026602
    72  C    0.107048
    73  C   -0.211675
    74  H    0.107183
    75  C    0.111500
    76  H    0.070013
    77  C   -0.445827
    78  H    0.139298
    79  H    0.135535
    80  H    0.150594
 Sum of Mulliken charges =   0.00000

 Dipole moment (field-independent basis, Debye):
    X=              1.9377    Y=             12.4557    Z=             -5.4108  Tot=             13.7177
 Quadrupole moment (field-independent basis, Debye-Ang):
   XX=           -296.1691   YY=           -360.4800   ZZ=           -326.0449
   XY=             -4.9426   XZ=              2.3776   YZ=             27.7326

 1\1\GINC-NEQC17\SP\RPBEPBE\Gen\C38H35Cl3P2Pt1Sn1\DIEGO\07-Sep-2018\0\\
 #PBEPBE/gen scf=(maxcycle=1000,conver=4) NMR=GIAO Scrf=(solvent=Dichlo
 romethane)\\estrutura 4\\0,1\Pt,0,0.124401,0.324503,-0.147109\H,0,0.40
 5972,1.757592,-0.718867\Sn,0,-0.39723,-2.13138,0.97844\P,0,-2.127415,0
 .83524,-0.596118\P,0,2.472736,0.157302,0.087241\Cl,0,-2.039285,-2.2094
 36,2.798226\Cl,0,-1.200403,-4.045057,-0.31065\Cl,0,1.415976,-3.322378,
 2.15478\C,0,-3.103865,1.371418,0.861585\C,0,-4.492452,1.576389,0.77246
 5\C,0,-2.447211,1.640092,2.074608\C,0,-5.207777,2.042209,1.877715\H,0,

 Normal termination of Gaussian 09 at Fri Sep  7 09:30:01 2018.
