 Gaussian 09, Revision D.01,
 Gaussian 09:  EM64L-G09RevD.01 24-Apr-2013

 ----------------------------------------------------------------------
 #PBEPBE/gen scf=(maxcycle=500,conver=3) NMR=GIAO Scrf=(solvent=Dichlor
 omethane)
 ----------------------------------------------------------------------

 -------------
 estrutura 109
 -------------
 Symbolic Z-matrix:
 Charge =  0 Multiplicity = 1

                         Standard orientation:
 ---------------------------------------------------------------------
 Center     Atomic      Atomic             Coordinates (Angstroms)
 Number     Number       Type             X           Y           Z
 ---------------------------------------------------------------------
      1         78           0        0.112404   -0.808526   -0.036150
      2         15           0       -2.256634   -1.173829    0.151564
      3          6           0       -3.556464    0.154858    0.293544
      4          6           0       -4.283498    0.390838    1.473465
      5          6           0       -3.901255    0.869835   -0.867539
      6          6           0       -5.339979    1.310917    1.486772
      7          1           0       -4.048639   -0.154859    2.387918
      8          6           0       -4.954708    1.787826   -0.851086
      9          1           0       -3.348845    0.708184   -1.795026
     10          6           0       -5.683596    2.006383    0.324267
     11          1           0       -5.902040    1.472890    2.411549
     12          1           0       -5.206148    2.333351   -1.764157
     13          1           0       -6.513815    2.718819    0.335376
     14          6           0       -2.515754   -2.149417    1.699436
     15          6           0       -3.214296   -3.364598    1.740517
     16          6           0       -1.968337   -1.639722    2.889935
     17          6           0       -3.371342   -4.049028    2.950144
     18          1           0       -3.625881   -3.796480    0.828808
     19          6           0       -2.135425   -2.319121    4.098393
     20          1           0       -1.403784   -0.705074    2.874715
     21          6           0       -2.837887   -3.528706    4.131847
     22          1           0       -3.910732   -4.999117    2.964191
     23          1           0       -1.707849   -1.907070    5.015342
     24          1           0       -2.961437   -4.066681    5.075201
     25          6           0       -2.982488   -2.137014   -1.249275
     26          6           0       -4.363244   -2.412807   -1.270660
     27          6           0       -2.190926   -2.549391   -2.332366
     28          6           0       -4.930301   -3.113640   -2.335856
     29          1           0       -5.007072   -2.070545   -0.457416
     30          6           0       -2.764496   -3.241218   -3.404897
     31          1           0       -1.123980   -2.331315   -2.334600
     32          6           0       -4.130111   -3.532968   -3.405285
     33          1           0       -6.003372   -3.324912   -2.333930
     34          1           0       -2.135044   -3.556378   -4.240999
     35          1           0       -4.574256   -4.079083   -4.240540
     36         50           0       -0.004455    1.869410   -0.075055
     37         15           0        2.492633   -0.673479   -0.056567
     38          6           0        3.481367   -2.241496   -0.017008
     39          6           0        3.714689   -2.940221   -1.215074
     40          6           0        4.004244   -2.751976    1.181592
     41          6           0        4.465697   -4.117028   -1.213861
     42          1           0        3.313244   -2.565485   -2.158768
     43          6           0        4.757720   -3.930838    1.179165
     44          1           0        3.834331   -2.232035    2.125812
     45          6           0        4.991448   -4.615031   -0.016987
     46          1           0        4.642057   -4.645673   -2.154565
     47          1           0        5.165553   -4.312184    2.118506
     48          1           0        5.585741   -5.532132   -0.017919
     49          6           0        3.144180    0.099336   -1.607724
     50          6           0        4.500472    0.432817   -1.800063
     51          6           0        2.257596    0.239031   -2.688265
     52          6           0        4.937020    0.944067   -3.024905
     53          1           0        5.236779    0.286367   -1.008211
     54          6           0        2.703095    0.728168   -3.921726
     55          1           0        1.206318   -0.038214   -2.565034
     56          6           0        4.040169    1.093891   -4.088460
     57          1           0        5.990980    1.205850   -3.151394
     58          1           0        1.998078    0.819743   -4.754126
     59          1           0        4.386646    1.486491   -5.047751
     60          6           0        3.087201    0.200846    1.466505
     61          6           0        4.348643    0.808654    1.588678
     62          6           0        2.248186    0.159428    2.596388
     63          6           0        4.748480    1.378891    2.799904
     64          1           0        5.033268    0.842562    0.743415
     65          6           0        2.652899    0.719217    3.813206
     66          1           0        1.271475   -0.325880    2.526348
     67          6           0        3.902544    1.336311    3.914709
     68          1           0        5.732069    1.849680    2.869564
     69          1           0        1.986827    0.668289    4.681216
     70          1           0        4.219997    1.777169    4.862975
     71         35           0        0.273383   -3.453006    0.071695
     72         35           0       -1.175142    2.624727   -2.334335
     73          6           0        1.860370    3.008892   -0.497029
     74          1           0        2.679950    2.438982   -0.038458
     75          1           0        1.953248    2.881529   -1.584491
     76          6           0       -1.192445    2.738353    1.585825
     77          1           0       -0.440652    3.218371    2.233805
     78          1           0       -1.565206    1.856993    2.128638
     79          6           0       -2.346156    3.694239    1.272341
     80          1           0       -2.947009    3.824344    2.193777
     81          1           0       -3.029219    3.226220    0.547613
     82          6           0       -1.954070    5.081492    0.758694
     83          1           0       -1.307032    5.574123    1.507860
     84          1           0       -1.346033    4.982004   -0.156647
     85          6           0       -3.166146    5.970174    0.473145
     86          1           0       -2.868163    6.971446    0.121820
     87          1           0       -3.810298    5.523381   -0.303647
     88          1           0       -3.784813    6.102584    1.377631
     89          6           0        1.999966    4.490482   -0.135419
     90          1           0        2.935410    4.850606   -0.611407
     91          1           0        1.193365    5.089060   -0.598156
     92          6           0        2.079282    4.807133    1.365890
     93          1           0        1.065035    4.791304    1.804519
     94          1           0        2.644622    4.007622    1.880064
     95          6           0        2.732974    6.161481    1.663056
     96          1           0        2.211747    6.991617    1.149988
     97          1           0        2.723254    6.384974    2.742976
     98          1           0        3.786242    6.176485    1.323917
 ---------------------------------------------------------------------

 SCF Done:  E(RPBE-PBE) =  -30613.7890403     A.U. after   10 cycles

      1  Pt   Isotropic =  3496.8210   Anisotropy =  1052.0055

      2  P    Isotropic =   249.0870   Anisotropy =    88.5224

      3  C    Isotropic =    -2.4393   Anisotropy =   197.4081

      4  C    Isotropic =    11.3058   Anisotropy =   142.2103

      5  C    Isotropic =    10.7833   Anisotropy =   164.9867

      6  C    Isotropic =    81.5081   Anisotropy =   258.3975

      7  H    Isotropic =    24.4114   Anisotropy =    13.0005

      8  C    Isotropic =    79.0184   Anisotropy =   256.9244

      9  H    Isotropic =    24.5205   Anisotropy =     7.8799

     10  C    Isotropic =    81.9635   Anisotropy =   242.2276

     11  H    Isotropic =    26.9819   Anisotropy =     4.3483

     12  H    Isotropic =    26.4608   Anisotropy =     4.8084

     13  H    Isotropic =    27.3952   Anisotropy =     7.2932

     14  C    Isotropic =    18.3771   Anisotropy =   199.2139

     15  C    Isotropic =     9.1509   Anisotropy =   128.4534

     16  C    Isotropic =    28.4595   Anisotropy =   150.4675

     17  C    Isotropic =    58.7702   Anisotropy =   251.4518

     18  H    Isotropic =    23.6490   Anisotropy =    15.3119

     19  C    Isotropic =    55.2216   Anisotropy =   208.6196

     20  H    Isotropic =    24.0416   Anisotropy =    12.2462

     21  C    Isotropic =    77.8501   Anisotropy =   296.1844

     22  H    Isotropic =    22.3553   Anisotropy =     8.9196

     23  H    Isotropic =    23.9292   Anisotropy =     7.8288

     24  H    Isotropic =    22.9411   Anisotropy =     5.4710

     25  C    Isotropic =    13.8525   Anisotropy =   190.4039

     26  C    Isotropic =   -26.1311   Anisotropy =    87.1232

     27  C    Isotropic =    17.3564   Anisotropy =   125.5082

     28  C    Isotropic =    61.0739   Anisotropy =   261.4457

     29  H    Isotropic =    24.4517   Anisotropy =    13.3911

     30  C    Isotropic =    75.7454   Anisotropy =   236.3377

     31  H    Isotropic =    23.3940   Anisotropy =    16.9393

     32  C    Isotropic =    85.8688   Anisotropy =   311.4317

     33  H    Isotropic =    22.7728   Anisotropy =     8.5427

     34  H    Isotropic =    25.3160   Anisotropy =     6.9972

     35  H    Isotropic =    24.3400   Anisotropy =     3.4986

     36  Sn   Isotropic =  1851.2055   Anisotropy =   303.3063

     37  P    Isotropic =   248.0867   Anisotropy =   122.9010

     38  C    Isotropic =    16.7627   Anisotropy =   165.6087

     39  C    Isotropic =    26.6458   Anisotropy =   157.8428

     40  C    Isotropic =    25.6288   Anisotropy =   151.2437

     41  C    Isotropic =    55.7855   Anisotropy =   211.0688

     42  H    Isotropic =    24.9565   Anisotropy =    13.8976

     43  C    Isotropic =    51.5371   Anisotropy =   207.0997

     44  H    Isotropic =    25.2408   Anisotropy =    14.6803

     45  C    Isotropic =    80.5803   Anisotropy =   298.4202

     46  H    Isotropic =    23.8781   Anisotropy =     8.1196

     47  H    Isotropic =    23.4836   Anisotropy =     8.5399

     48  H    Isotropic =    22.9900   Anisotropy =     4.6536

     49  C    Isotropic =    14.6272   Anisotropy =   155.6962

     50  C    Isotropic =     5.7061   Anisotropy =   109.1669

     51  C    Isotropic =    22.4663   Anisotropy =   141.0541

     52  C    Isotropic =    50.1586   Anisotropy =   224.5010

     53  H    Isotropic =    22.0465   Anisotropy =    12.4695

     54  C    Isotropic =    60.7389   Anisotropy =   203.0050

     55  H    Isotropic =    23.5193   Anisotropy =    15.4908

     56  C    Isotropic =    73.6034   Anisotropy =   274.7390

     57  H    Isotropic =    22.1048   Anisotropy =     7.5771

     58  H    Isotropic =    24.5806   Anisotropy =     8.1478

     59  H    Isotropic =    23.0366   Anisotropy =     5.7024

     60  C    Isotropic =    17.7519   Anisotropy =   166.2093

     61  C    Isotropic =     1.6379   Anisotropy =    93.5658

     62  C    Isotropic =    29.4245   Anisotropy =   152.1422

     63  C    Isotropic =    47.9456   Anisotropy =   217.2774

     64  H    Isotropic =    21.3254   Anisotropy =    13.1780

     65  C    Isotropic =    54.7262   Anisotropy =   201.2133

     66  H    Isotropic =    23.6135   Anisotropy =    15.6315

     67  C    Isotropic =    69.3594   Anisotropy =   277.6939

     68  H    Isotropic =    22.0994   Anisotropy =     7.1529

     69  H    Isotropic =    24.0372   Anisotropy =     7.7196

     70  H    Isotropic =    22.4953   Anisotropy =     5.9531

     71  Br   Isotropic =  2351.3918   Anisotropy =   490.6052

     72  Br   Isotropic =  2574.6816   Anisotropy =   328.6273

     73  C    Isotropic =   143.0607   Anisotropy =    21.9973

     74  H    Isotropic =    31.9122   Anisotropy =     7.0106

     75  H    Isotropic =    31.7029   Anisotropy =     6.6294

     76  C    Isotropic =   148.6555   Anisotropy =    26.9466

     77  H    Isotropic =    30.5514   Anisotropy =     7.9079

     78  H    Isotropic =    30.5028   Anisotropy =     4.8291

     79  C    Isotropic =   147.6827   Anisotropy =    27.1136

     80  H    Isotropic =    29.6845   Anisotropy =     9.6267

     81  H    Isotropic =    32.1354   Anisotropy =    10.6459

     82  C    Isotropic =   149.9772   Anisotropy =    29.8348

     83  H    Isotropic =    30.3574   Anisotropy =     7.8501

     84  H    Isotropic =    30.9162   Anisotropy =     8.0560

     85  C    Isotropic =   166.0003   Anisotropy =    34.0927

     86  H    Isotropic =    30.5131   Anisotropy =    12.5861

     87  H    Isotropic =    31.2236   Anisotropy =     5.5819

     88  H    Isotropic =    31.0223   Anisotropy =    10.2933

     89  C    Isotropic =   147.1038   Anisotropy =    31.1140

     90  H    Isotropic =    29.8574   Anisotropy =    12.0179

     91  H    Isotropic =    30.1461   Anisotropy =     6.5982

     92  C    Isotropic =   147.6874   Anisotropy =    30.1992

     93  H    Isotropic =    30.5338   Anisotropy =     6.6650

     94  H    Isotropic =    32.2866   Anisotropy =     8.2697

     95  C    Isotropic =   166.0931   Anisotropy =    34.3315

     96  H    Isotropic =    30.9772   Anisotropy =    10.0456

     97  H    Isotropic =    30.7443   Anisotropy =    11.6182

     98  H    Isotropic =    31.0860   Anisotropy =     9.3807

 The electronic state is 1-A.
 Alpha  occ. eigenvalues -- ********************-478.58709-478.55504-427.52493
 Alpha  occ. eigenvalues -- -414.85542-414.85476-414.85249-149.61722-141.89582
 Alpha  occ. eigenvalues -- -141.89466-141.89453 -99.90576 -92.06394 -92.06329
 Alpha  occ. eigenvalues --  -92.05978 -79.02276 -79.02172 -79.01984 -79.01940
 Alpha  occ. eigenvalues --  -79.01889 -76.31496 -76.30942 -61.50516 -61.47352
 Alpha  occ. eigenvalues --  -55.68938 -55.68747 -55.68735 -55.65749 -55.65591
 Alpha  occ. eigenvalues --  -55.65562 -28.78039 -25.12839 -25.12497 -25.12457
 Alpha  occ. eigenvalues --  -20.82078 -17.67641 -17.67576 -17.67550 -17.67322
 Alpha  occ. eigenvalues --  -17.67316 -17.38852 -17.38709 -17.37990 -11.57227
 Alpha  occ. eigenvalues --  -11.56855 -11.56490 -11.56388 -11.56293  -9.92659
 Alpha  occ. eigenvalues --   -9.92417  -9.91960  -9.91955  -9.91781  -9.91448
 Alpha  occ. eigenvalues --   -9.91304  -9.91088  -9.91056  -9.91033  -9.91016
 Alpha  occ. eigenvalues --   -9.90960  -9.90835  -9.90762  -9.90724  -9.90718
 Alpha  occ. eigenvalues --   -9.90565  -9.90536  -9.90490  -9.90453  -9.90425
 Alpha  occ. eigenvalues --   -9.90402  -9.90371  -9.90359  -9.90358  -9.90357
 Alpha  occ. eigenvalues --   -9.90347  -9.90327  -9.90291  -9.90281  -9.90145
 Alpha  occ. eigenvalues --   -9.90142  -9.90129  -9.90127  -9.90051  -9.90031
 Alpha  occ. eigenvalues --   -9.88242  -9.88061  -9.87985  -9.87864  -9.87726
 Alpha  occ. eigenvalues --   -9.87475  -9.87316  -9.87059  -8.33284  -8.30239
 Alpha  occ. eigenvalues --   -6.34418  -6.33894  -6.23968  -6.23413  -6.23379
 Alpha  occ. eigenvalues --   -6.20881  -6.20412  -6.20332  -4.56976  -4.56949
 Alpha  occ. eigenvalues --   -4.56657  -4.56443  -4.56439  -4.56124  -4.46659
 Alpha  occ. eigenvalues --   -3.20432  -3.19766  -3.19674  -3.12094  -3.12073
 Alpha  occ. eigenvalues --   -3.11673  -3.11408  -3.11299  -3.11202  -3.11170
 Alpha  occ. eigenvalues --   -2.85107  -2.44951  -2.44813  -2.44789  -2.44378
 Alpha  occ. eigenvalues --   -2.44378  -2.41873  -2.41768  -2.41711  -2.41365
 Alpha  occ. eigenvalues --   -2.41363  -1.80312  -1.79578  -1.77643  -0.99329
 Alpha  occ. eigenvalues --   -0.99044  -0.98976  -0.98583  -0.98519  -0.79933
 Alpha  occ. eigenvalues --   -0.79529  -0.79264  -0.78730  -0.78634  -0.78541
 Alpha  occ. eigenvalues --   -0.71781  -0.71509  -0.71439  -0.71231  -0.69222
 Alpha  occ. eigenvalues --   -0.69123  -0.68793  -0.68777  -0.68493  -0.68433
 Alpha  occ. eigenvalues --   -0.68276  -0.68175  -0.68081  -0.67987  -0.66200
 Alpha  occ. eigenvalues --   -0.64568  -0.64409  -0.63088  -0.60870  -0.60405
 Alpha  occ. eigenvalues --   -0.56344  -0.55981  -0.55925  -0.55865  -0.55686
 Alpha  occ. eigenvalues --   -0.55414  -0.55397  -0.55145  -0.54807  -0.54685
 Alpha  occ. eigenvalues --   -0.54490  -0.54424  -0.52025  -0.51499  -0.51161
 Alpha  occ. eigenvalues --   -0.50556  -0.47833  -0.47619  -0.47435  -0.47270
 Alpha  occ. eigenvalues --   -0.45938  -0.45452  -0.42437  -0.41933  -0.41851
 Alpha  occ. eigenvalues --   -0.41678  -0.41581  -0.41513  -0.41395  -0.41261
 Alpha  occ. eigenvalues --   -0.41038  -0.40736  -0.40705  -0.40559  -0.40371
 Alpha  occ. eigenvalues --   -0.40042  -0.39081  -0.38786  -0.38322  -0.38238
 Alpha  occ. eigenvalues --   -0.38153  -0.38047  -0.37995  -0.37928  -0.37811
 Alpha  occ. eigenvalues --   -0.37684  -0.37286  -0.37185  -0.37146  -0.37020
 Alpha  occ. eigenvalues --   -0.36865  -0.36308  -0.34925  -0.34662  -0.34392
 Alpha  occ. eigenvalues --   -0.34156  -0.34040  -0.33788  -0.33535  -0.33395
 Alpha  occ. eigenvalues --   -0.33205  -0.32317  -0.32008  -0.31778  -0.31668
 Alpha  occ. eigenvalues --   -0.31287  -0.31061  -0.30981  -0.30841  -0.30767
 Alpha  occ. eigenvalues --   -0.30743  -0.30139  -0.29955  -0.29819  -0.29562
 Alpha  occ. eigenvalues --   -0.29293  -0.29142  -0.28682  -0.28308  -0.27942
 Alpha  occ. eigenvalues --   -0.27874  -0.27561  -0.26780  -0.26406  -0.25659
 Alpha  occ. eigenvalues --   -0.25289  -0.25008  -0.24836  -0.24741  -0.24596
 Alpha  occ. eigenvalues --   -0.24544  -0.24341  -0.24154  -0.24084  -0.23920
 Alpha  occ. eigenvalues --   -0.23820  -0.23561  -0.23501  -0.23048  -0.22097
 Alpha  occ. eigenvalues --   -0.21493  -0.21210  -0.20347  -0.19965  -0.19484
 Alpha virt. eigenvalues --   -0.09579  -0.07832  -0.07037  -0.06599  -0.06543
 Alpha virt. eigenvalues --   -0.06165  -0.06001  -0.05775  -0.05628  -0.05445
 Alpha virt. eigenvalues --   -0.05236  -0.04670  -0.04474  -0.03973  -0.02661

 Mulliken charges:
               1
     1  Pt  -0.067958
     2  P    1.090979
     3  C   -1.026494
     4  C    0.324448
     5  C    0.590117
     6  C   -0.118751
     7  H    0.080088
     8  C   -0.023336
     9  H    0.104289
    10  C   -0.587180
    11  H    0.126170
    12  H    0.123771
    13  H    0.142267
    14  C   -0.816809
    15  C    0.216171
    16  C    0.684128
    17  C   -0.286648
    18  H    0.092903
    19  C   -0.015983
    20  H    0.056450
    21  C   -0.576680
    22  H    0.143132
    23  H    0.143466
    24  H    0.154350
    25  C   -0.656158
    26  C    0.403132
    27  C    0.217892
    28  C    0.082323
    29  H    0.095220
    30  C   -0.294118
    31  H    0.116091
    32  C   -0.660510
    33  H    0.143773
    34  H    0.144494
    35  H    0.153627
    36  Sn  -0.446857
    37  P    1.623158
    38  C   -1.008624
    39  C    0.425462
    40  C    0.327722
    41  C   -0.083905
    42  H    0.100273
    43  C   -0.152537
    44  H    0.107032
    45  C   -0.550259
    46  H    0.147811
    47  H    0.145089
    48  H    0.151696
    49  C   -0.794551
    50  C    0.225331
    51  C    0.301955
    52  C   -0.008007
    53  H    0.084935
    54  C   -0.043836
    55  H    0.045977
    56  C   -0.547769
    57  H    0.143164
    58  H    0.137029
    59  H    0.149479
    60  C   -0.537054
    61  C    0.036514
    62  C    0.331493
    63  C   -0.070039
    64  H    0.069764
    65  C   -0.080001
    66  H    0.065654
    67  C   -0.564891
    68  H    0.140194
    69  H    0.139959
    70  H    0.145920
    71  Br  -0.483587
    72  Br  -0.342105
    73  C    0.003997
    74  H    0.008684
    75  H    0.052030
    76  C   -0.206996
    77  H    0.070258
    78  H    0.050814
    79  C    0.145512
    80  H    0.067448
    81  H   -0.008497
    82  C   -0.199765
    83  H    0.100229
    84  H    0.074054
    85  C   -0.311372
    86  H    0.141654
    87  H    0.119482
    88  H    0.139923
    89  C   -0.228354
    90  H    0.106970
    91  H    0.077206
    92  C    0.015880
    93  H    0.054991
    94  H    0.044055
    95  C   -0.378206
    96  H    0.141661
    97  H    0.143905
    98  H    0.144192
 Sum of Mulliken charges =   0.00000

 Dipole moment (field-independent basis, Debye):
    X=              2.6915    Y=              1.8843    Z=              4.1412  Tot=              5.2862
 Quadrupole moment (field-independent basis, Debye-Ang):
   XX=           -326.7683   YY=           -404.5719   ZZ=           -348.8125
   XY=             14.0711   XZ=             -4.9019   YZ=             13.0016

 Normal termination of Gaussian 09 at Sat Nov 30 11:29:57 2019.
