 Gaussian 09, Revision D.01,
 Gaussian 09:  EM64L-G09RevD.01 24-Apr-2013

 ----------------------------------------------------------------------
 #PBEPBE/gen scf=(maxcycle=500,conver=4) NMR=GIAO Scrf=(solvent=Dichlor
 omethane)
 ----------------------------------------------------------------------

 ------------
 estrutura 81
 ------------
 Symbolic Z-matrix:
 Charge =  0 Multiplicity = 1

                         Standard orientation:
 ---------------------------------------------------------------------
 Center     Atomic      Atomic             Coordinates (Angstroms)
 Number     Number       Type             X           Y           Z
 ---------------------------------------------------------------------
      1         78           0        0.221155   -0.002516    0.085816
      2         15           0       -0.033913    2.389509    0.134629
      3         15           0        0.515081   -2.383339    0.024263
      4          6           0       -0.480677    3.030741   -1.545909
      5          1           0       -1.330582    2.417381   -1.881881
      6          1           0        0.370936    2.760789   -2.192369
      7          6           0       -0.823833    4.517300   -1.675133
      8          1           0       -0.019528    5.172475   -1.306997
      9          1           0       -0.993361    4.767735   -2.734548
     10          1           0       -1.746055    4.768691   -1.130409
     11          6           0       -1.433400    2.842959    1.285920
     12          1           0       -1.436078    2.070381    2.070387
     13          6           0        1.394562    3.437179    0.691052
     14          1           0        0.973381    4.409915    0.986566
     15          1           0        1.782591    2.967876    1.608078
     16          6           0        2.520479    3.650464   -0.324516
     17          1           0        3.319809    4.253228    0.135007
     18          1           0        2.963593    2.701485   -0.653281
     19          1           0        2.172859    4.195733   -1.214989
     20          6           0       -0.640964   -3.338996    1.112509
     21          1           0       -0.395338   -4.406777    0.991241
     22          1           0       -1.650064   -3.211704    0.689859
     23          6           0       -0.605979   -2.932071    2.587106
     24          1           0        0.392658   -3.071464    3.030290
     25          1           0       -0.894718   -1.878134    2.718470
     26          1           0       -1.313831   -3.545839    3.165726
     27          6           0        2.202820   -2.992543    0.491876
     28          1           0        2.906290   -2.487805   -0.186311
     29          1           0        2.413084   -2.574785    1.488666
     30          6           0        2.419942   -4.507607    0.474114
     31          1           0        3.466760   -4.731827    0.733839
     32          1           0        1.785011   -5.032290    1.204146
     33          1           0        2.229894   -4.946073   -0.517713
     34          6           0        0.191831   -3.075732   -1.662410
     35          1           0        0.345288   -4.166635   -1.614223
     36          1           0       -0.881761   -2.918044   -1.850768
     37          6           0        1.034479   -2.448213   -2.775184
     38          1           0        0.754921   -2.876548   -3.750463
     39          1           0        0.877408   -1.358985   -2.826728
     40          1           0        2.111609   -2.627466   -2.632621
     41         50           0       -2.482367   -0.305266   -0.214213
     42         17           0       -3.697981   -0.398724    1.913616
     43         17           0       -3.877857    1.377146   -1.346812
     44         17           0       -3.512132   -2.268740   -1.280825
     45          6           0       -1.455566    4.233594    1.927362
     46          1           0       -2.376807    4.342261    2.521885
     47          1           0       -0.606769    4.386760    2.610579
     48          1           0       -1.446442    5.044372    1.184123
     49          1           0       -2.349782    2.682144    0.694302
     50          6           0        2.235241    0.189423    0.455298
     51          6           0        3.172064    0.140622   -0.582318
     52          6           0        2.701475    0.339185    1.776927
     53          6           0        4.554560    0.235296   -0.325161
     54          1           0        2.866241    0.024548   -1.625134
     55          6           0        4.072770    0.431624    2.030616
     56          1           0        1.997827    0.379755    2.612685
     57          6           0        5.012553    0.381075    0.993063
     58          1           0        4.424862    0.544914    3.060301
     59          1           0        6.075924    0.454870    1.220482
     60          8           0        5.364093    0.178255   -1.416533
     61          6           0        6.764485    0.276224   -1.243706
     62          1           0        7.209215    0.210198   -2.245477
     63          1           0        7.054027    1.238355   -0.785822
     64          1           0        7.159337   -0.546266   -0.621651
 ---------------------------------------------------------------------

 SCF Done:  E(RPBE-PBE) =  -25974.5299214     A.U. after   11 cycles

      1  Pt   Isotropic =  2998.3805   Anisotropy =  1094.3947

      2  P    Isotropic =   288.1170   Anisotropy =    42.3338

      3  P    Isotropic =   275.2682   Anisotropy =    48.4872

      4  C    Isotropic =   155.4890   Anisotropy =    36.1419

      5  H    Isotropic =    28.5462   Anisotropy =     9.2676

      6  H    Isotropic =    29.2864   Anisotropy =     5.7453

      7  C    Isotropic =   172.7984   Anisotropy =    20.9741

      8  H    Isotropic =    30.4044   Anisotropy =     8.6771

      9  H    Isotropic =    30.1315   Anisotropy =    13.2375

     10  H    Isotropic =    30.1708   Anisotropy =     7.8095

     11  C    Isotropic =   151.4239   Anisotropy =    32.3240

     12  H    Isotropic =    28.9487   Anisotropy =     7.6568

     13  C    Isotropic =   165.8692   Anisotropy =    22.4514

     14  H    Isotropic =    29.3181   Anisotropy =     9.1088

     15  H    Isotropic =    29.8835   Anisotropy =     6.0462

     16  C    Isotropic =   174.8545   Anisotropy =    20.1140

     17  H    Isotropic =    30.8775   Anisotropy =    11.8604

     18  H    Isotropic =    31.0534   Anisotropy =    12.5236

     19  H    Isotropic =    30.9374   Anisotropy =     8.8515

     20  C    Isotropic =   156.3743   Anisotropy =    21.1931

     21  H    Isotropic =    29.3555   Anisotropy =     9.4757

     22  H    Isotropic =    29.2022   Anisotropy =     8.7702

     23  C    Isotropic =   172.2782   Anisotropy =    17.4764

     24  H    Isotropic =    30.6154   Anisotropy =     9.0241

     25  H    Isotropic =    30.0964   Anisotropy =     5.7151

     26  H    Isotropic =    30.1718   Anisotropy =    12.9632

     27  C    Isotropic =   166.4632   Anisotropy =    28.1490

     28  H    Isotropic =    30.0899   Anisotropy =    10.8528

     29  H    Isotropic =    30.3688   Anisotropy =     6.9356

     30  C    Isotropic =   178.0928   Anisotropy =    17.5787

     31  H    Isotropic =    30.5828   Anisotropy =    12.7431

     32  H    Isotropic =    30.6711   Anisotropy =    10.1174

     33  H    Isotropic =    30.7164   Anisotropy =     9.8388

     34  C    Isotropic =   157.3140   Anisotropy =    21.8088

     35  H    Isotropic =    29.4338   Anisotropy =     9.5635

     36  H    Isotropic =    28.8030   Anisotropy =    10.5633

     37  C    Isotropic =   171.9153   Anisotropy =    18.0527

     38  H    Isotropic =    30.1420   Anisotropy =    13.1178

     39  H    Isotropic =    30.1590   Anisotropy =     5.7026

     40  H    Isotropic =    30.4342   Anisotropy =     8.8884

     41  Sn   Isotropic =  2151.6620   Anisotropy =   825.2465

     42  Cl   Isotropic =   759.8160   Anisotropy =   321.3664

     43  Cl   Isotropic =   750.3423   Anisotropy =   294.6727

     44  Cl   Isotropic =   753.6461   Anisotropy =   297.3595

     45  C    Isotropic =   170.6591   Anisotropy =    21.4379

     46  H    Isotropic =    30.0389   Anisotropy =    12.3484

     47  H    Isotropic =    30.2453   Anisotropy =     9.1840

     48  H    Isotropic =    30.3694   Anisotropy =     8.5671

     49  H    Isotropic =    28.5061   Anisotropy =     9.4697

     50  C    Isotropic =     7.0990   Anisotropy =   161.7308

     51  C    Isotropic =    58.0988   Anisotropy =   124.1426

     52  C    Isotropic =    62.3516   Anisotropy =   146.9781

     53  C    Isotropic =    28.3980   Anisotropy =   146.1632

     54  H    Isotropic =    24.0820   Anisotropy =    14.1271

     55  C    Isotropic =    53.3478   Anisotropy =   179.5193

     56  H    Isotropic =    24.0735   Anisotropy =    13.6483

     57  C    Isotropic =    64.8116   Anisotropy =   111.9260

     58  H    Isotropic =    23.5921   Anisotropy =     6.1289

     59  H    Isotropic =    25.0673   Anisotropy =     4.1781

     60  O    Isotropic =   213.9305   Anisotropy =    87.2438

     61  C    Isotropic =   128.4404   Anisotropy =    77.0577

     62  H    Isotropic =    27.5097   Anisotropy =     9.3362

     63  H    Isotropic =    27.8372   Anisotropy =     9.3679

     64  H    Isotropic =    27.7740   Anisotropy =     9.2634

 The electronic state is 1-A.
 Alpha  occ. eigenvalues -- ********************-427.53642-414.86690-414.86650
 Alpha  occ. eigenvalues -- -414.86375-149.64958-141.92769-141.92766-141.92695
 Alpha  occ. eigenvalues -- -100.55398-100.55341-100.55221 -99.91673 -92.07533
 Alpha  occ. eigenvalues --  -92.07407 -92.07058 -79.03412 -79.03291 -79.03097
 Alpha  occ. eigenvalues --  -79.03034 -79.02990 -76.29682 -76.29564 -28.81343
 Alpha  occ. eigenvalues --  -25.15975 -25.15969 -25.15743 -20.83141 -18.79401
 Alpha  occ. eigenvalues --  -17.70869 -17.70869 -17.70716 -17.70714 -17.70668
 Alpha  occ. eigenvalues --  -17.39983 -17.39751 -17.39007 -11.58358 -11.57936
 Alpha  occ. eigenvalues --  -11.57535 -11.57417 -11.57332  -9.95325  -9.93881
 Alpha  occ. eigenvalues --   -9.90770  -9.90633  -9.90543  -9.90512  -9.90421
 Alpha  occ. eigenvalues --   -9.90344  -9.90294  -9.89620  -9.88989  -9.88959
 Alpha  occ. eigenvalues --   -9.88938  -9.88934  -9.88920  -9.88880  -9.88650
 Alpha  occ. eigenvalues --   -9.88538  -9.88525  -9.13258  -9.13198  -9.13077
 Alpha  occ. eigenvalues --   -6.97013  -6.96951  -6.96833  -6.96467  -6.96454
 Alpha  occ. eigenvalues --   -6.96409  -6.96394  -6.96287  -6.96271  -6.32700
 Alpha  occ. eigenvalues --   -6.32615  -4.55234  -4.55225  -4.55142  -4.55132
 Alpha  occ. eigenvalues --   -4.54953  -4.54878  -4.50049  -3.23495  -3.23472
 Alpha  occ. eigenvalues --   -3.23069  -3.13219  -3.13185  -3.12743  -3.12441
 Alpha  occ. eigenvalues --   -3.12326  -3.12237  -3.12202  -2.86101  -1.81105
 Alpha  occ. eigenvalues --   -1.80940  -1.78430  -1.02531  -1.02522  -1.02152
 Alpha  occ. eigenvalues --   -1.02129  -1.02019  -0.98734  -0.77345  -0.73426
 Alpha  occ. eigenvalues --   -0.73295  -0.71920  -0.70417  -0.70328  -0.69517
 Alpha  occ. eigenvalues --   -0.69331  -0.69037  -0.68985  -0.68894  -0.67014
 Alpha  occ. eigenvalues --   -0.62781  -0.61212  -0.60965  -0.57160  -0.56706
 Alpha  occ. eigenvalues --   -0.56432  -0.55507  -0.54563  -0.52684  -0.48980
 Alpha  occ. eigenvalues --   -0.48161  -0.47887  -0.43575  -0.43136  -0.43029
 Alpha  occ. eigenvalues --   -0.42466  -0.42247  -0.42114  -0.41775  -0.41440
 Alpha  occ. eigenvalues --   -0.40702  -0.40329  -0.38446  -0.38183  -0.38102
 Alpha  occ. eigenvalues --   -0.37904  -0.37612  -0.37373  -0.37179  -0.36710
 Alpha  occ. eigenvalues --   -0.36498  -0.35994  -0.35079  -0.34721  -0.34670
 Alpha  occ. eigenvalues --   -0.33804  -0.33333  -0.33308  -0.33205  -0.32636
 Alpha  occ. eigenvalues --   -0.32351  -0.32091  -0.32055  -0.31947  -0.31684
 Alpha  occ. eigenvalues --   -0.31551  -0.31246  -0.30851  -0.30486  -0.30353
 Alpha  occ. eigenvalues --   -0.28997  -0.28940  -0.28606  -0.28359  -0.28245
 Alpha  occ. eigenvalues --   -0.27829  -0.27331  -0.27207  -0.26784  -0.26058
 Alpha  occ. eigenvalues --   -0.25793  -0.25661  -0.25338  -0.25177  -0.23538
 Alpha  occ. eigenvalues --   -0.22307  -0.21056  -0.19870  -0.19613
 Alpha virt. eigenvalues --   -0.08005  -0.06232  -0.04719  -0.04141  -0.02962
 Alpha virt. eigenvalues --   -0.02867  -0.02130  -0.01637  -0.01433  -0.00524
 Alpha virt. eigenvalues --   -0.00304  -0.00033   0.00207   0.00744   0.01305

 Mulliken charges:
               1
     1  Pt   0.389868
     2  P    0.057710
     3  P    0.217607
     4  C   -0.332981
     5  H    0.087264
     6  H    0.092053
     7  C   -0.182322
     8  H    0.109749
     9  H    0.136161
    10  H    0.113357
    11  C   -0.330567
    12  H    0.096992
    13  C   -0.353817
    14  H    0.112006
    15  H    0.089730
    16  C   -0.102041
    17  H    0.116747
    18  H    0.063539
    19  H    0.095265
    20  C   -0.444939
    21  H    0.110841
    22  H    0.085512
    23  C   -0.108028
    24  H    0.104679
    25  H    0.076308
    26  H    0.130149
    27  C   -0.410774
    28  H    0.074378
    29  H    0.086697
    30  C   -0.191181
    31  H    0.137724
    32  H    0.114877
    33  H    0.114819
    34  C   -0.434675
    35  H    0.103367
    36  H    0.082511
    37  C   -0.104251
    38  H    0.136914
    39  H    0.070689
    40  H    0.099991
    41  Sn   0.333280
    42  Cl  -0.301456
    43  Cl  -0.272737
    44  Cl  -0.250069
    45  C   -0.176457
    46  H    0.133196
    47  H    0.116986
    48  H    0.110545
    49  H    0.080723
    50  C    0.279587
    51  C    0.029539
    52  C    0.010479
    53  C   -0.271670
    54  H    0.039319
    55  C    0.134938
    56  H    0.068360
    57  C   -0.696505
    58  H    0.127964
    59  H    0.134147
    60  O   -0.052674
    61  C   -0.353306
    62  H    0.163099
    63  H    0.150134
    64  H    0.150648
 Sum of Mulliken charges =   0.00000

 Dipole moment (field-independent basis, Debye):
    X=             14.5813    Y=              1.6866    Z=              1.0849  Tot=             14.7186
 Quadrupole moment (field-independent basis, Debye-Ang):
   XX=           -273.5614   YY=           -219.6157   ZZ=           -247.9931
   XY=             -9.2276   XZ=             -3.7197   YZ=              0.6263

 Normal termination of Gaussian 09 at Tue Sep 24 14:27:28 2019.
