 Gaussian 09, Revision D.01,
 Gaussian 09:  EM64L-G09RevD.01 24-Apr-2013

 ----------------------------------------------------------------------
 #PBEPBE/gen scf=(maxcycle=500,conver=4) NMR=GIAO Scrf=(solvent=Dichlor
 omethane)
 ----------------------------------------------------------------------

 ------------
 estrutura 18
 ------------
 Symbolic Z-matrix:
 Charge =  0 Multiplicity = 1

                         Standard orientation:
 ---------------------------------------------------------------------
 Center     Atomic      Atomic             Coordinates (Angstroms)
 Number     Number       Type             X           Y           Z
 ---------------------------------------------------------------------
      1         78           0        0.014103    0.037681   -0.095845
      2         50           0       -0.042853   -2.648993   -0.195324
      3         50           0        0.145216    2.698483   -0.304024
      4         17           0        1.703162   -3.942945   -1.277017
      5         17           0       -1.819891   -3.733612   -1.434518
      6         17           0       -0.148624   -3.797960    1.934120
      7         17           0       -1.582498    3.934279   -1.469312
      8         17           0        0.299340    4.080313    1.676804
      9         17           0        2.017627    3.567556   -1.576199
     10         15           0        2.347303   -0.016559    0.158333
     11          8           0        2.676083   -1.397104    0.934420
     12          8           0        2.817697    1.233197    1.046467
     13          8           0        3.343998    0.071018   -1.106167
     14          6           0        3.844701   -1.749588    1.749461
     15          1           0        4.653617   -1.038757    1.513376
     16          6           0        4.119076    1.745368    1.525633
     17          1           0        4.445444    1.048935    2.314568
     18          6           0        3.445583   -0.890624   -2.207008
     19          1           0        3.310229   -1.892925   -1.778219
     20          6           0        5.172973    1.824547    0.429574
     21          1           0        6.054811    2.344566    0.833424
     22          1           0        5.489531    0.834395    0.078827
     23          1           0        4.791069    2.393902   -0.429283
     24          6           0        3.820064    3.097939    2.147838
     25          1           0        3.515743    3.819443    1.376839
     26          1           0        3.011899    3.023070    2.888929
     27          1           0        4.723663    3.475618    2.648726
     28          6           0        3.437760   -1.627629    3.210516
     29          1           0        2.620042   -2.330538    3.431572
     30          1           0        4.291470   -1.861488    3.864714
     31          1           0        3.089754   -0.610290    3.443006
     32          6           0        4.280563   -3.150000    1.355230
     33          1           0        5.140911   -3.452901    1.971120
     34          1           0        3.461974   -3.868280    1.516151
     35          1           0        4.575346   -3.193851    0.298051
     36          6           0        4.852666   -0.753748   -2.762423
     37          1           0        5.007634   -1.486013   -3.567538
     38          1           0        5.014104    0.255478   -3.173746
     39          1           0        5.606433   -0.937161   -1.980517
     40          6           0        2.360825   -0.627935   -3.241197
     41          1           0        1.354915   -0.665065   -2.793298
     42          1           0        2.493113    0.358497   -3.711463
     43          1           0        2.408218   -1.401543   -4.022446
     44         15           0       -2.335676    0.036574    0.106271
     45          8           0       -3.073558   -0.385417   -1.257490
     46          8           0       -3.024313    1.438465    0.509526
     47          8           0       -2.698133   -1.049133    1.247515
     48          6           0       -3.806773    1.887636    1.665868
     49          1           0       -4.304655    1.009799    2.096857
     50          6           0       -4.311541    0.116345   -1.864954
     51          1           0       -4.914292    0.581847   -1.069287
     52          6           0       -4.001588   -1.577974    1.685234
     53          1           0       -4.784531   -0.884081    1.339123
     54          6           0       -2.890194    2.506590    2.706774
     55          1           0       -2.113816    1.797562    3.031384
     56          1           0       -2.394879    3.407488    2.317818
     57          1           0       -3.483051    2.789103    3.591211
     58          6           0       -4.852274    2.852271    1.130013
     59          1           0       -5.548453    2.347677    0.444337
     60          1           0       -5.436001    3.268832    1.966270
     61          1           0       -4.367823    3.681139    0.591795
     62          6           0       -3.946112    1.159225   -2.907106
     63          1           0       -3.425887    2.013859   -2.450532
     64          1           0       -3.290869    0.718251   -3.676307
     65          1           0       -4.857685    1.530877   -3.404008
     66          6           0       -5.051714   -1.079188   -2.440955
     67          1           0       -5.979618   -0.738870   -2.926224
     68          1           0       -4.433107   -1.591329   -3.195705
     69          1           0       -5.319802   -1.804318   -1.659927
     70          6           0       -3.965787   -1.617555    3.205561
     71          1           0       -4.916106   -2.025656    3.589007
     72          1           0       -3.146751   -2.268916    3.543437
     73          1           0       -3.819093   -0.618711    3.639237
     74          6           0       -4.231790   -2.945859    1.066176
     75          1           0       -3.472312   -3.662747    1.410609
     76          1           0       -5.225765   -3.314957    1.365248
     77          1           0       -4.185817   -2.902655   -0.028372
 ---------------------------------------------------------------------

 SCF Done:  E(RPBE-PBE) =  -33675.2299699     A.U. after    9 cycles

      1  Pt   Isotropic =  3214.7348   Anisotropy =  1881.2377

      2  Sn   Isotropic =  2178.8997   Anisotropy =   688.3301

      3  Sn   Isotropic =  2168.1772   Anisotropy =   696.0450

      4  Cl   Isotropic =   716.3782   Anisotropy =   352.7120

      5  Cl   Isotropic =   734.8368   Anisotropy =   313.9188

      6  Cl   Isotropic =   772.9009   Anisotropy =   305.9607

      7  Cl   Isotropic =   737.4247   Anisotropy =   318.7169

      8  Cl   Isotropic =   751.9113   Anisotropy =   287.9610

      9  Cl   Isotropic =   751.4238   Anisotropy =   316.2741

     10  P    Isotropic =   159.6378   Anisotropy =   175.3301

     11  O    Isotropic =   104.6810   Anisotropy =   113.7124

     12  O    Isotropic =   148.0613   Anisotropy =    54.9459

     13  O    Isotropic =   121.5746   Anisotropy =    96.8615

     14  C    Isotropic =    98.6817   Anisotropy =    83.6372

     15  H    Isotropic =    26.5507   Anisotropy =     5.0015

     16  C    Isotropic =    89.2289   Anisotropy =    97.1716

     17  H    Isotropic =    25.9928   Anisotropy =     6.2278

     18  C    Isotropic =   102.5303   Anisotropy =    77.2221

     19  H    Isotropic =    25.6509   Anisotropy =     6.7438

     20  C    Isotropic =   155.8948   Anisotropy =    29.3878

     21  H    Isotropic =    30.2195   Anisotropy =    11.7152

     22  H    Isotropic =    29.4120   Anisotropy =     4.6011

     23  H    Isotropic =    29.5663   Anisotropy =     2.5477

     24  C    Isotropic =   154.9546   Anisotropy =    32.8153

     25  H    Isotropic =    29.7579   Anisotropy =     3.9806

     26  H    Isotropic =    29.7515   Anisotropy =     4.2994

     27  H    Isotropic =    30.2021   Anisotropy =    11.8522

     28  C    Isotropic =   155.8364   Anisotropy =    38.9726

     29  H    Isotropic =    29.8112   Anisotropy =     3.5396

     30  H    Isotropic =    30.2234   Anisotropy =    11.9109

     31  H    Isotropic =    29.8416   Anisotropy =     4.5115

     32  C    Isotropic =   155.9404   Anisotropy =    33.6785

     33  H    Isotropic =    30.3956   Anisotropy =    11.6287

     34  H    Isotropic =    29.7426   Anisotropy =     3.7113

     35  H    Isotropic =    29.7497   Anisotropy =     5.0924

     36  C    Isotropic =   158.6960   Anisotropy =    40.4970

     37  H    Isotropic =    30.2508   Anisotropy =    11.1740

     38  H    Isotropic =    30.1505   Anisotropy =     7.1264

     39  H    Isotropic =    29.9320   Anisotropy =     8.0346

     40  C    Isotropic =   157.2784   Anisotropy =    29.8641

     41  H    Isotropic =    29.6819   Anisotropy =    11.5022

     42  H    Isotropic =    30.2255   Anisotropy =     5.5561

     43  H    Isotropic =    30.3401   Anisotropy =     9.4051

     44  P    Isotropic =   173.6756   Anisotropy =   163.5771

     45  O    Isotropic =   138.7058   Anisotropy =    81.9210

     46  O    Isotropic =   135.0362   Anisotropy =   104.5403

     47  O    Isotropic =   128.3836   Anisotropy =    94.0677

     48  C    Isotropic =    97.0968   Anisotropy =    83.5424

     49  H    Isotropic =    26.3087   Anisotropy =     4.3920

     50  C    Isotropic =    99.7172   Anisotropy =    81.2435

     51  H    Isotropic =    26.3064   Anisotropy =     4.8895

     52  C    Isotropic =    95.4263   Anisotropy =    85.9529

     53  H    Isotropic =    26.3512   Anisotropy =     5.8277

     54  C    Isotropic =   156.1576   Anisotropy =    30.8330

     55  H    Isotropic =    29.8993   Anisotropy =     2.3449

     56  H    Isotropic =    29.3316   Anisotropy =     8.0902

     57  H    Isotropic =    30.1010   Anisotropy =    10.8995

     58  C    Isotropic =   159.6058   Anisotropy =    37.0811

     59  H    Isotropic =    29.8139   Anisotropy =     7.4442

     60  H    Isotropic =    30.2420   Anisotropy =    11.7649

     61  H    Isotropic =    29.9631   Anisotropy =     4.1205

     62  C    Isotropic =   156.9652   Anisotropy =    37.3545

     63  H    Isotropic =    29.1522   Anisotropy =    10.4187

     64  H    Isotropic =    30.3206   Anisotropy =     4.2370

     65  H    Isotropic =    30.3560   Anisotropy =    11.2682

     66  C    Isotropic =   158.2779   Anisotropy =    37.7285

     67  H    Isotropic =    30.2268   Anisotropy =    11.6910

     68  H    Isotropic =    30.0105   Anisotropy =     5.1503

     69  H    Isotropic =    29.7697   Anisotropy =     6.1314

     70  C    Isotropic =   158.0663   Anisotropy =    39.3813

     71  H    Isotropic =    30.1582   Anisotropy =    12.0418

     72  H    Isotropic =    30.0082   Anisotropy =     4.1177

     73  H    Isotropic =    29.8462   Anisotropy =     6.1542

     74  C    Isotropic =   155.0420   Anisotropy =    28.3321

     75  H    Isotropic =    29.9107   Anisotropy =     3.8873

     76  H    Isotropic =    30.1546   Anisotropy =    11.3380

     77  H    Isotropic =    29.1541   Anisotropy =     3.9580

 The electronic state is 1-A.
 Alpha  occ. eigenvalues -- ******************************-427.56554-414.89614
 Alpha  occ. eigenvalues -- -414.89524-414.89275-149.66652-149.66524-141.94467
 Alpha  occ. eigenvalues -- -141.94457-141.94394-141.94335-141.94330-141.94264
 Alpha  occ. eigenvalues -- -100.56358-100.56250-100.56096-100.56061-100.55998
 Alpha  occ. eigenvalues -- -100.55876 -99.94594 -92.10474 -92.10335 -92.09945
 Alpha  occ. eigenvalues --  -79.06340 -79.06238 -79.06018 -79.05941 -79.05881
 Alpha  occ. eigenvalues --  -76.40922 -76.40824 -28.83033 -28.82919 -25.17674
 Alpha  occ. eigenvalues --  -25.17646 -25.17553 -25.17539 -25.17442 -25.17327
 Alpha  occ. eigenvalues --  -20.86054 -18.79920 -18.79475 -18.79461 -18.79164
 Alpha  occ. eigenvalues --  -18.79144 -18.79111 -17.72556 -17.72555 -17.72439
 Alpha  occ. eigenvalues --  -17.72439 -17.72417 -17.72401 -17.72363 -17.72297
 Alpha  occ. eigenvalues --  -17.72289 -17.72247 -17.42950 -17.42670 -17.41854
 Alpha  occ. eigenvalues --  -11.61281 -11.60922 -11.60461 -11.60303 -11.60170
 Alpha  occ. eigenvalues --   -9.96934  -9.96931  -9.96870  -9.96838  -9.96514
 Alpha  occ. eigenvalues --   -9.96137  -9.89008  -9.88922  -9.88902  -9.88735
 Alpha  occ. eigenvalues --   -9.88688  -9.88681  -9.88656  -9.88583  -9.88582
 Alpha  occ. eigenvalues --   -9.88395  -9.88379  -9.88283  -9.14202  -9.14111
 Alpha  occ. eigenvalues --   -9.13952  -9.13928  -9.13859  -9.13736  -6.98008
 Alpha  occ. eigenvalues --   -6.97920  -6.97756  -6.97732  -6.97659  -6.97542
 Alpha  occ. eigenvalues --   -6.97385  -6.97373  -6.97287  -6.97281  -6.97142
 Alpha  occ. eigenvalues --   -6.97120  -6.97115  -6.97085  -6.97050  -6.97022
 Alpha  occ. eigenvalues --   -6.96928  -6.96893  -6.42835  -6.42689  -4.65587
 Alpha  occ. eigenvalues --   -4.65465  -4.65440  -4.65365  -4.65013  -4.64838
 Alpha  occ. eigenvalues --   -4.51739  -4.51649  -3.25188  -3.25135  -3.25082
 Alpha  occ. eigenvalues --   -3.25062  -3.24796  -3.24709  -3.16173  -3.16139
 Alpha  occ. eigenvalues --   -3.15661  -3.15394  -3.15232  -3.15089  -3.15043
 Alpha  occ. eigenvalues --   -2.89026  -1.84382  -1.83629  -1.81265  -1.04219
 Alpha  occ. eigenvalues --   -1.04204  -1.04137  -1.04132  -1.03863  -1.03801
 Alpha  occ. eigenvalues --   -1.03762  -1.03747  -1.03737  -1.03656  -1.00487
 Alpha  occ. eigenvalues --   -1.00250  -0.95624  -0.95331  -0.95172  -0.95053
 Alpha  occ. eigenvalues --   -0.74450  -0.74326  -0.72912  -0.72906  -0.72310
 Alpha  occ. eigenvalues --   -0.72282  -0.72092  -0.72008  -0.71317  -0.71250
 Alpha  occ. eigenvalues --   -0.71053  -0.70956  -0.63364  -0.63354  -0.63267
 Alpha  occ. eigenvalues --   -0.63236  -0.63207  -0.62959  -0.61405  -0.61055
 Alpha  occ. eigenvalues --   -0.56453  -0.56194  -0.55586  -0.55323  -0.51933
 Alpha  occ. eigenvalues --   -0.51550  -0.48698  -0.48548  -0.48290  -0.47860
 Alpha  occ. eigenvalues --   -0.45822  -0.43912  -0.43238  -0.42655  -0.42433
 Alpha  occ. eigenvalues --   -0.42035  -0.41678  -0.41485  -0.41352  -0.40804
 Alpha  occ. eigenvalues --   -0.40493  -0.40302  -0.39925  -0.39485  -0.38933
 Alpha  occ. eigenvalues --   -0.38128  -0.37581  -0.37341  -0.36293  -0.35949
 Alpha  occ. eigenvalues --   -0.35747  -0.35634  -0.35506  -0.35304  -0.35211
 Alpha  occ. eigenvalues --   -0.35180  -0.35164  -0.34890  -0.34874  -0.34499
 Alpha  occ. eigenvalues --   -0.34197  -0.34024  -0.33831  -0.33498  -0.33304
 Alpha  occ. eigenvalues --   -0.33155  -0.33101  -0.32877  -0.32744  -0.32691
 Alpha  occ. eigenvalues --   -0.32609  -0.32569  -0.32466  -0.32028  -0.31466
 Alpha  occ. eigenvalues --   -0.31149  -0.30868  -0.30655  -0.30520  -0.30252
 Alpha  occ. eigenvalues --   -0.29806  -0.29479  -0.29265  -0.29020  -0.28593
 Alpha  occ. eigenvalues --   -0.28442  -0.28317  -0.28195  -0.27955  -0.27849
 Alpha  occ. eigenvalues --   -0.27663  -0.27376  -0.27218  -0.27046  -0.26739
 Alpha  occ. eigenvalues --   -0.26688  -0.26542  -0.26331  -0.26196  -0.25948
 Alpha  occ. eigenvalues --   -0.25467  -0.24117  -0.23479  -0.22643
 Alpha virt. eigenvalues --   -0.12753  -0.08534  -0.05314  -0.04484  -0.04107
 Alpha virt. eigenvalues --   -0.03268  -0.02891  -0.02233  -0.02053  -0.01272
 Alpha virt. eigenvalues --   -0.00946  -0.00686  -0.00547  -0.00138  -0.00011

 Mulliken charges:
               1
     1  Pt  -0.658215
     2  Sn   0.234343
     3  Sn   0.239399
     4  Cl  -0.165224
     5  Cl  -0.171965
     6  Cl  -0.213553
     7  Cl  -0.157358
     8  Cl  -0.211156
     9  Cl  -0.203028
    10  P   -0.234983
    11  O   -0.172852
    12  O   -0.088419
    13  O   -0.096908
    14  C   -0.027067
    15  H    0.050639
    16  C   -0.041066
    17  H    0.061890
    18  C   -0.111552
    19  H    0.049301
    20  C   -0.060519
    21  H    0.134563
    22  H    0.075031
    23  H    0.082532
    24  C   -0.178414
    25  H    0.100532
    26  H    0.115250
    27  H    0.144118
    28  C   -0.133883
    29  H    0.091858
    30  H    0.136983
    31  H    0.093228
    32  C   -0.142577
    33  H    0.140714
    34  H    0.099718
    35  H    0.104224
    36  C   -0.188382
    37  H    0.142080
    38  H    0.118357
    39  H    0.111394
    40  C   -0.019879
    41  H    0.048720
    42  H    0.091204
    43  H    0.118332
    44  P   -0.051840
    45  O   -0.132948
    46  O   -0.159046
    47  O   -0.165404
    48  C    0.000912
    49  H    0.033752
    50  C   -0.109761
    51  H    0.043125
    52  C    0.003619
    53  H    0.044449
    54  C   -0.106469
    55  H    0.074651
    56  H    0.086704
    57  H    0.132827
    58  C   -0.176445
    59  H    0.105689
    60  H    0.143843
    61  H    0.101074
    62  C   -0.108489
    63  H    0.072601
    64  H    0.099930
    65  H    0.133480
    66  C   -0.138845
    67  H    0.142061
    68  H    0.112476
    69  H    0.090740
    70  C   -0.149313
    71  H    0.139492
    72  H    0.104276
    73  H    0.101333
    74  C   -0.078465
    75  H    0.092424
    76  H    0.129666
    77  H    0.080491
 Sum of Mulliken charges =   0.00000

 Dipole moment (field-independent basis, Debye):
    X=             -1.2347    Y=             -0.4014    Z=              4.8829  Tot=              5.0526
 Quadrupole moment (field-independent basis, Debye-Ang):
   XX=           -254.0681   YY=           -413.5522   ZZ=           -327.5017
   XY=             -8.6396   XZ=             -0.5280   YZ=              4.9862

 Normal termination of Gaussian 09 at Tue Feb  4 00:29:09 2020.
